##File Type: Far field
##File Format: 5
##Source: inf_dip_img
##Date: 2018-08-01 10:18:39
** File exported by POSTFEKO version 2018-319328 (x64)

#Configuration Name: StandardConfiguration1
#Request Name: FarField1
#Frequency: 1.00000000E+09
#Coordinate System: Spherical
#No. of Theta Samples: 901
#No. of Phi Samples: 1
#Result Type: Gain
#No. of Header Lines: 1
#                 "Theta"           "Phi"             "Re(Etheta)"      "Im(Etheta)"      "Re(Ephi)"        "Im(Ephi)"        "Gain(Theta)"     "Gain(Phi)"       "Gain(Total)"     
                  -9.00000000E+01    0.00000000E+00    0.00000000E+00    0.00000000E+00    2.78109578E-08    1.99830761E-09   -1.00000000E+03   -1.30728437E+02   -1.30728437E+02   
                  -8.98000000E+01    0.00000000E+00    0.00000000E+00    0.00000000E+00    1.77513537E-04   -1.44237706E-03   -1.00000000E+03   -3.63882577E+01   -3.63882577E+01   
                  -8.96000000E+01    0.00000000E+00    0.00000000E+00    0.00000000E+00    3.54991754E-04   -2.88469513E-03   -1.00000000E+03   -3.03678456E+01   -3.03678456E+01   
                  -8.94000000E+01    0.00000000E+00    0.00000000E+00    0.00000000E+00    5.32454954E-04   -4.32689122E-03   -1.00000000E+03   -2.68463279E+01   -2.68463279E+01   
                  -8.92000000E+01    0.00000000E+00    0.00000000E+00    0.00000000E+00    7.09895635E-04   -5.76890435E-03   -1.00000000E+03   -2.43479824E+01   -2.43479824E+01   
                  -8.90000000E+01    0.00000000E+00    0.00000000E+00    0.00000000E+00    8.87306296E-04   -7.21067356E-03   -1.00000000E+03   -2.24103335E+01   -2.24103335E+01   
                  -8.88000000E+01    0.00000000E+00    0.00000000E+00    0.00000000E+00    1.06467944E-03   -8.65213793E-03   -1.00000000E+03   -2.08273822E+01   -2.08273822E+01   
                  -8.86000000E+01    0.00000000E+00    0.00000000E+00    0.00000000E+00    1.24200757E-03   -1.00932366E-02   -1.00000000E+03   -1.94892423E+01   -1.94892423E+01   
                  -8.84000000E+01    0.00000000E+00    0.00000000E+00    0.00000000E+00    1.41928320E-03   -1.15339086E-02   -1.00000000E+03   -1.83303217E+01   -1.83303217E+01   
                  -8.82000000E+01    0.00000000E+00    0.00000000E+00    0.00000000E+00    1.59649884E-03   -1.29740932E-02   -1.00000000E+03   -1.73083118E+01   -1.73083118E+01   
                  -8.80000000E+01    0.00000000E+00    0.00000000E+00    0.00000000E+00    1.77364703E-03   -1.44137297E-02   -1.00000000E+03   -1.63943248E+01   -1.63943248E+01   
                  -8.78000000E+01    0.00000000E+00    0.00000000E+00    0.00000000E+00    1.95072028E-03   -1.58527573E-02   -1.00000000E+03   -1.55677562E+01   -1.55677562E+01   
                  -8.76000000E+01    0.00000000E+00    0.00000000E+00    0.00000000E+00    2.12771115E-03   -1.72911155E-02   -1.00000000E+03   -1.48133924E+01   -1.48133924E+01   
                  -8.74000000E+01    0.00000000E+00    0.00000000E+00    0.00000000E+00    2.30461218E-03   -1.87287436E-02   -1.00000000E+03   -1.41196799E+01   -1.41196799E+01   
                  -8.72000000E+01    0.00000000E+00    0.00000000E+00    0.00000000E+00    2.48141593E-03   -2.01655813E-02   -1.00000000E+03   -1.34776380E+01   -1.34776380E+01   
                  -8.70000000E+01    0.00000000E+00    0.00000000E+00    0.00000000E+00    2.65811497E-03   -2.16015680E-02   -1.00000000E+03   -1.28801474E+01   -1.28801474E+01   
                  -8.68000000E+01    0.00000000E+00    0.00000000E+00    0.00000000E+00    2.83470188E-03   -2.30366437E-02   -1.00000000E+03   -1.23214690E+01   -1.23214690E+01   
                  -8.66000000E+01    0.00000000E+00    0.00000000E+00    0.00000000E+00    3.01116926E-03   -2.44707480E-02   -1.00000000E+03   -1.17969082E+01   -1.17969082E+01   
                  -8.64000000E+01    0.00000000E+00    0.00000000E+00    0.00000000E+00    3.18750971E-03   -2.59038209E-02   -1.00000000E+03   -1.13025766E+01   -1.13025766E+01   
                  -8.62000000E+01    0.00000000E+00    0.00000000E+00    0.00000000E+00    3.36371586E-03   -2.73358024E-02   -1.00000000E+03   -1.08352167E+01   -1.08352167E+01   
                  -8.60000000E+01    0.00000000E+00    0.00000000E+00    0.00000000E+00    3.53978033E-03   -2.87666327E-02   -1.00000000E+03   -1.03920728E+01   -1.03920728E+01   
                  -8.58000000E+01    0.00000000E+00    0.00000000E+00    0.00000000E+00    3.71569579E-03   -3.01962521E-02   -1.00000000E+03   -9.97079252E+00   -9.97079252E+00   
                  -8.56000000E+01    0.00000000E+00    0.00000000E+00    0.00000000E+00    3.89145491E-03   -3.16246011E-02   -1.00000000E+03   -9.56935232E+00   -9.56935232E+00   
                  -8.54000000E+01    0.00000000E+00    0.00000000E+00    0.00000000E+00    4.06705036E-03   -3.30516200E-02   -1.00000000E+03   -9.18599844E+00   -9.18599844E+00   
                  -8.52000000E+01    0.00000000E+00    0.00000000E+00    0.00000000E+00    4.24247486E-03   -3.44772498E-02   -1.00000000E+03   -8.81920120E+00   -8.81920120E+00   
                  -8.50000000E+01    0.00000000E+00    0.00000000E+00    0.00000000E+00    4.41772112E-03   -3.59014312E-02   -1.00000000E+03   -8.46761830E+00   -8.46761830E+00   
                  -8.48000000E+01    0.00000000E+00    0.00000000E+00    0.00000000E+00    4.59278190E-03   -3.73241053E-02   -1.00000000E+03   -8.13006546E+00   -8.13006546E+00   
                  -8.46000000E+01    0.00000000E+00    0.00000000E+00    0.00000000E+00    4.76764995E-03   -3.87452133E-02   -1.00000000E+03   -7.80549249E+00   -7.80549249E+00   
                  -8.44000000E+01    0.00000000E+00    0.00000000E+00    0.00000000E+00    4.94231806E-03   -4.01646965E-02   -1.00000000E+03   -7.49296385E+00   -7.49296385E+00   
                  -8.42000000E+01    0.00000000E+00    0.00000000E+00    0.00000000E+00    5.11677903E-03   -4.15824966E-02   -1.00000000E+03   -7.19164248E+00   -7.19164248E+00   
                  -8.40000000E+01    0.00000000E+00    0.00000000E+00    0.00000000E+00    5.29102571E-03   -4.29985551E-02   -1.00000000E+03   -6.90077647E+00   -6.90077647E+00   
                  -8.38000000E+01    0.00000000E+00    0.00000000E+00    0.00000000E+00    5.46505094E-03   -4.44128141E-02   -1.00000000E+03   -6.61968789E+00   -6.61968789E+00   
                  -8.36000000E+01    0.00000000E+00    0.00000000E+00    0.00000000E+00    5.63884760E-03   -4.58252157E-02   -1.00000000E+03   -6.34776340E+00   -6.34776340E+00   
                  -8.34000000E+01    0.00000000E+00    0.00000000E+00    0.00000000E+00    5.81240860E-03   -4.72357022E-02   -1.00000000E+03   -6.08444626E+00   -6.08444626E+00   
                  -8.32000000E+01    0.00000000E+00    0.00000000E+00    0.00000000E+00    5.98572686E-03   -4.86442162E-02   -1.00000000E+03   -5.82922961E+00   -5.82922961E+00   
                  -8.30000000E+01    0.00000000E+00    0.00000000E+00    0.00000000E+00    6.15879535E-03   -5.00507004E-02   -1.00000000E+03   -5.58165064E+00   -5.58165064E+00   
                  -8.28000000E+01    0.00000000E+00    0.00000000E+00    0.00000000E+00    6.33160704E-03   -5.14550978E-02   -1.00000000E+03   -5.34128569E+00   -5.34128569E+00   
                  -8.26000000E+01    0.00000000E+00    0.00000000E+00    0.00000000E+00    6.50415496E-03   -5.28573516E-02   -1.00000000E+03   -5.10774588E+00   -5.10774588E+00   
                  -8.24000000E+01    0.00000000E+00    0.00000000E+00    0.00000000E+00    6.67643213E-03   -5.42574053E-02   -1.00000000E+03   -4.88067346E+00   -4.88067346E+00   
                  -8.22000000E+01    0.00000000E+00    0.00000000E+00    0.00000000E+00    6.84843164E-03   -5.56552026E-02   -1.00000000E+03   -4.65973854E+00   -4.65973854E+00   
                  -8.20000000E+01    0.00000000E+00    0.00000000E+00    0.00000000E+00    7.02014659E-03   -5.70506874E-02   -1.00000000E+03   -4.44463629E+00   -4.44463629E+00   
                  -8.18000000E+01    0.00000000E+00    0.00000000E+00    0.00000000E+00    7.19157011E-03   -5.84438039E-02   -1.00000000E+03   -4.23508444E+00   -4.23508444E+00   
                  -8.16000000E+01    0.00000000E+00    0.00000000E+00    0.00000000E+00    7.36269536E-03   -5.98344965E-02   -1.00000000E+03   -4.03082113E+00   -4.03082113E+00   
                  -8.14000000E+01    0.00000000E+00    0.00000000E+00    0.00000000E+00    7.53351555E-03   -6.12227101E-02   -1.00000000E+03   -3.83160296E+00   -3.83160296E+00   
                  -8.12000000E+01    0.00000000E+00    0.00000000E+00    0.00000000E+00    7.70402390E-03   -6.26083895E-02   -1.00000000E+03   -3.63720333E+00   -3.63720333E+00   
                  -8.10000000E+01    0.00000000E+00    0.00000000E+00    0.00000000E+00    7.87421368E-03   -6.39914801E-02   -1.00000000E+03   -3.44741089E+00   -3.44741089E+00   
                  -8.08000000E+01    0.00000000E+00    0.00000000E+00    0.00000000E+00    8.04407820E-03   -6.53719274E-02   -1.00000000E+03   -3.26202821E+00   -3.26202821E+00   
                  -8.06000000E+01    0.00000000E+00    0.00000000E+00    0.00000000E+00    8.21361078E-03   -6.67496773E-02   -1.00000000E+03   -3.08087062E+00   -3.08087062E+00   
                  -8.04000000E+01    0.00000000E+00    0.00000000E+00    0.00000000E+00    8.38280481E-03   -6.81246758E-02   -1.00000000E+03   -2.90376506E+00   -2.90376506E+00   
                  -8.02000000E+01    0.00000000E+00    0.00000000E+00    0.00000000E+00    8.55165369E-03   -6.94968695E-02   -1.00000000E+03   -2.73054920E+00   -2.73054920E+00   
                  -8.00000000E+01    0.00000000E+00    0.00000000E+00    0.00000000E+00    8.72015087E-03   -7.08662051E-02   -1.00000000E+03   -2.56107053E+00   -2.56107053E+00   
                  -7.98000000E+01    0.00000000E+00    0.00000000E+00    0.00000000E+00    8.88828983E-03   -7.22326296E-02   -1.00000000E+03   -2.39518556E+00   -2.39518556E+00   
                  -7.96000000E+01    0.00000000E+00    0.00000000E+00    0.00000000E+00    9.05606410E-03   -7.35960904E-02   -1.00000000E+03   -2.23275920E+00   -2.23275920E+00   
                  -7.94000000E+01    0.00000000E+00    0.00000000E+00    0.00000000E+00    9.22346724E-03   -7.49565352E-02   -1.00000000E+03   -2.07366403E+00   -2.07366403E+00   
                  -7.92000000E+01    0.00000000E+00    0.00000000E+00    0.00000000E+00    9.39049287E-03   -7.63139120E-02   -1.00000000E+03   -1.91777977E+00   -1.91777977E+00   
                  -7.90000000E+01    0.00000000E+00    0.00000000E+00    0.00000000E+00    9.55713461E-03   -7.76681692E-02   -1.00000000E+03   -1.76499275E+00   -1.76499275E+00   
                  -7.88000000E+01    0.00000000E+00    0.00000000E+00    0.00000000E+00    9.72338617E-03   -7.90192555E-02   -1.00000000E+03   -1.61519546E+00   -1.61519546E+00   
                  -7.86000000E+01    0.00000000E+00    0.00000000E+00    0.00000000E+00    9.88924126E-03   -8.03671198E-02   -1.00000000E+03   -1.46828605E+00   -1.46828605E+00   
                  -7.84000000E+01    0.00000000E+00    0.00000000E+00    0.00000000E+00    1.00546937E-02   -8.17117117E-02   -1.00000000E+03   -1.32416798E+00   -1.32416798E+00   
                  -7.82000000E+01    0.00000000E+00    0.00000000E+00    0.00000000E+00    1.02197372E-02   -8.30529808E-02   -1.00000000E+03   -1.18274968E+00   -1.18274968E+00   
                  -7.80000000E+01    0.00000000E+00    0.00000000E+00    0.00000000E+00    1.03843657E-02   -8.43908772E-02   -1.00000000E+03   -1.04394415E+00   -1.04394415E+00   
                  -7.78000000E+01    0.00000000E+00    0.00000000E+00    0.00000000E+00    1.05485731E-02   -8.57253513E-02   -1.00000000E+03   -9.07668702E-01   -9.07668702E-01   
                  -7.76000000E+01    0.00000000E+00    0.00000000E+00    0.00000000E+00    1.07123534E-02   -8.70563541E-02   -1.00000000E+03   -7.73844683E-01   -7.73844683E-01   
                  -7.74000000E+01    0.00000000E+00    0.00000000E+00    0.00000000E+00    1.08757005E-02   -8.83838366E-02   -1.00000000E+03   -6.42397194E-01   -6.42397194E-01   
                  -7.72000000E+01    0.00000000E+00    0.00000000E+00    0.00000000E+00    1.10386084E-02   -8.97077506E-02   -1.00000000E+03   -5.13254862E-01   -5.13254862E-01   
                  -7.70000000E+01    0.00000000E+00    0.00000000E+00    0.00000000E+00    1.12010714E-02   -9.10280478E-02   -1.00000000E+03   -3.86349626E-01   -3.86349626E-01   
                  -7.68000000E+01    0.00000000E+00    0.00000000E+00    0.00000000E+00    1.13630834E-02   -9.23446808E-02   -1.00000000E+03   -2.61616529E-01   -2.61616529E-01   
                  -7.66000000E+01    0.00000000E+00    0.00000000E+00    0.00000000E+00    1.15246387E-02   -9.36576021E-02   -1.00000000E+03   -1.38993532E-01   -1.38993532E-01   
                  -7.64000000E+01    0.00000000E+00    0.00000000E+00    0.00000000E+00    1.16857315E-02   -9.49667650E-02   -1.00000000E+03   -1.84213451E-02   -1.84213451E-02   
                  -7.62000000E+01    0.00000000E+00    0.00000000E+00    0.00000000E+00    1.18463562E-02   -9.62721229E-02   -1.00000000E+03    1.00156740E-01    1.00156740E-01   
                  -7.60000000E+01    0.00000000E+00    0.00000000E+00    0.00000000E+00    1.20065070E-02   -9.75736299E-02   -1.00000000E+03    2.16794994E-01    2.16794994E-01   
                  -7.58000000E+01    0.00000000E+00    0.00000000E+00    0.00000000E+00    1.21661783E-02   -9.88712402E-02   -1.00000000E+03    3.31545389E-01    3.31545389E-01   
                  -7.56000000E+01    0.00000000E+00    0.00000000E+00    0.00000000E+00    1.23253645E-02   -1.00164909E-01   -1.00000000E+03    4.44457731E-01    4.44457731E-01   
                  -7.54000000E+01    0.00000000E+00    0.00000000E+00    0.00000000E+00    1.24840602E-02   -1.01454590E-01   -1.00000000E+03    5.55579772E-01    5.55579772E-01   
                  -7.52000000E+01    0.00000000E+00    0.00000000E+00    0.00000000E+00    1.26422598E-02   -1.02740241E-01   -1.00000000E+03    6.64957331E-01    6.64957331E-01   
                  -7.50000000E+01    0.00000000E+00    0.00000000E+00    0.00000000E+00    1.27999581E-02   -1.04021816E-01   -1.00000000E+03    7.72634391E-01    7.72634391E-01   
                  -7.48000000E+01    0.00000000E+00    0.00000000E+00    0.00000000E+00    1.29571495E-02   -1.05299273E-01   -1.00000000E+03    8.78653200E-01    8.78653200E-01   
                  -7.46000000E+01    0.00000000E+00    0.00000000E+00    0.00000000E+00    1.31138288E-02   -1.06572568E-01   -1.00000000E+03    9.83054360E-01    9.83054360E-01   
                  -7.44000000E+01    0.00000000E+00    0.00000000E+00    0.00000000E+00    1.32699908E-02   -1.07841659E-01   -1.00000000E+03    1.08587692E+00    1.08587692E+00   
                  -7.42000000E+01    0.00000000E+00    0.00000000E+00    0.00000000E+00    1.34256302E-02   -1.09106503E-01   -1.00000000E+03    1.18715843E+00    1.18715843E+00   
                  -7.40000000E+01    0.00000000E+00    0.00000000E+00    0.00000000E+00    1.35807419E-02   -1.10367058E-01   -1.00000000E+03    1.28693505E+00    1.28693505E+00   
                  -7.38000000E+01    0.00000000E+00    0.00000000E+00    0.00000000E+00    1.37353208E-02   -1.11623284E-01   -1.00000000E+03    1.38524161E+00    1.38524161E+00   
                  -7.36000000E+01    0.00000000E+00    0.00000000E+00    0.00000000E+00    1.38893619E-02   -1.12875139E-01   -1.00000000E+03    1.48211165E+00    1.48211165E+00   
                  -7.34000000E+01    0.00000000E+00    0.00000000E+00    0.00000000E+00    1.40428603E-02   -1.14122583E-01   -1.00000000E+03    1.57757752E+00    1.57757752E+00   
                  -7.32000000E+01    0.00000000E+00    0.00000000E+00    0.00000000E+00    1.41958109E-02   -1.15365575E-01   -1.00000000E+03    1.67167041E+00    1.67167041E+00   
                  -7.30000000E+01    0.00000000E+00    0.00000000E+00    0.00000000E+00    1.43482090E-02   -1.16604077E-01   -1.00000000E+03    1.76442041E+00    1.76442041E+00   
                  -7.28000000E+01    0.00000000E+00    0.00000000E+00    0.00000000E+00    1.45000496E-02   -1.17838050E-01   -1.00000000E+03    1.85585659E+00    1.85585659E+00   
                  -7.26000000E+01    0.00000000E+00    0.00000000E+00    0.00000000E+00    1.46513282E-02   -1.19067453E-01   -1.00000000E+03    1.94600698E+00    1.94600698E+00   
                  -7.24000000E+01    0.00000000E+00    0.00000000E+00    0.00000000E+00    1.48020399E-02   -1.20292251E-01   -1.00000000E+03    2.03489870E+00    2.03489870E+00   
                  -7.22000000E+01    0.00000000E+00    0.00000000E+00    0.00000000E+00    1.49521802E-02   -1.21512404E-01   -1.00000000E+03    2.12255796E+00    2.12255796E+00   
                  -7.20000000E+01    0.00000000E+00    0.00000000E+00    0.00000000E+00    1.51017445E-02   -1.22727877E-01   -1.00000000E+03    2.20901007E+00    2.20901007E+00   
                  -7.18000000E+01    0.00000000E+00    0.00000000E+00    0.00000000E+00    1.52507283E-02   -1.23938631E-01   -1.00000000E+03    2.29427955E+00    2.29427955E+00   
                  -7.16000000E+01    0.00000000E+00    0.00000000E+00    0.00000000E+00    1.53991270E-02   -1.25144631E-01   -1.00000000E+03    2.37839010E+00    2.37839010E+00   
                  -7.14000000E+01    0.00000000E+00    0.00000000E+00    0.00000000E+00    1.55469364E-02   -1.26345841E-01   -1.00000000E+03    2.46136469E+00    2.46136469E+00   
                  -7.12000000E+01    0.00000000E+00    0.00000000E+00    0.00000000E+00    1.56941520E-02   -1.27542227E-01   -1.00000000E+03    2.54322554E+00    2.54322554E+00   
                  -7.10000000E+01    0.00000000E+00    0.00000000E+00    0.00000000E+00    1.58407697E-02   -1.28733752E-01   -1.00000000E+03    2.62399419E+00    2.62399419E+00   
                  -7.08000000E+01    0.00000000E+00    0.00000000E+00    0.00000000E+00    1.59867852E-02   -1.29920383E-01   -1.00000000E+03    2.70369152E+00    2.70369152E+00   
                  -7.06000000E+01    0.00000000E+00    0.00000000E+00    0.00000000E+00    1.61321943E-02   -1.31102087E-01   -1.00000000E+03    2.78233775E+00    2.78233775E+00   
                  -7.04000000E+01    0.00000000E+00    0.00000000E+00    0.00000000E+00    1.62769929E-02   -1.32278829E-01   -1.00000000E+03    2.85995251E+00    2.85995251E+00   
                  -7.02000000E+01    0.00000000E+00    0.00000000E+00    0.00000000E+00    1.64211771E-02   -1.33450578E-01   -1.00000000E+03    2.93655483E+00    2.93655483E+00   
                  -7.00000000E+01    0.00000000E+00    0.00000000E+00    0.00000000E+00    1.65647428E-02   -1.34617301E-01   -1.00000000E+03    3.01216320E+00    3.01216320E+00   
                  -6.98000000E+01    0.00000000E+00    0.00000000E+00    0.00000000E+00    1.67076861E-02   -1.35778965E-01   -1.00000000E+03    3.08679554E+00    3.08679554E+00   
                  -6.96000000E+01    0.00000000E+00    0.00000000E+00    0.00000000E+00    1.68500033E-02   -1.36935541E-01   -1.00000000E+03    3.16046929E+00    3.16046929E+00   
                  -6.94000000E+01    0.00000000E+00    0.00000000E+00    0.00000000E+00    1.69916905E-02   -1.38086997E-01   -1.00000000E+03    3.23320134E+00    3.23320134E+00   
                  -6.92000000E+01    0.00000000E+00    0.00000000E+00    0.00000000E+00    1.71327439E-02   -1.39233303E-01   -1.00000000E+03    3.30500815E+00    3.30500815E+00   
                  -6.90000000E+01    0.00000000E+00    0.00000000E+00    0.00000000E+00    1.72731601E-02   -1.40374429E-01   -1.00000000E+03    3.37590569E+00    3.37590569E+00   
                  -6.88000000E+01    0.00000000E+00    0.00000000E+00    0.00000000E+00    1.74129352E-02   -1.41510346E-01   -1.00000000E+03    3.44590951E+00    3.44590951E+00   
                  -6.86000000E+01    0.00000000E+00    0.00000000E+00    0.00000000E+00    1.75520659E-02   -1.42641026E-01   -1.00000000E+03    3.51503471E+00    3.51503471E+00   
                  -6.84000000E+01    0.00000000E+00    0.00000000E+00    0.00000000E+00    1.76905486E-02   -1.43766440E-01   -1.00000000E+03    3.58329599E+00    3.58329599E+00   
                  -6.82000000E+01    0.00000000E+00    0.00000000E+00    0.00000000E+00    1.78283800E-02   -1.44886560E-01   -1.00000000E+03    3.65070766E+00    3.65070766E+00   
                  -6.80000000E+01    0.00000000E+00    0.00000000E+00    0.00000000E+00    1.79655567E-02   -1.46001360E-01   -1.00000000E+03    3.71728365E+00    3.71728365E+00   
                  -6.78000000E+01    0.00000000E+00    0.00000000E+00    0.00000000E+00    1.81020754E-02   -1.47110813E-01   -1.00000000E+03    3.78303752E+00    3.78303752E+00   
                  -6.76000000E+01    0.00000000E+00    0.00000000E+00    0.00000000E+00    1.82379330E-02   -1.48214892E-01   -1.00000000E+03    3.84798247E+00    3.84798247E+00   
                  -6.74000000E+01    0.00000000E+00    0.00000000E+00    0.00000000E+00    1.83731263E-02   -1.49313573E-01   -1.00000000E+03    3.91213137E+00    3.91213137E+00   
                  -6.72000000E+01    0.00000000E+00    0.00000000E+00    0.00000000E+00    1.85076521E-02   -1.50406830E-01   -1.00000000E+03    3.97549676E+00    3.97549676E+00   
                  -6.70000000E+01    0.00000000E+00    0.00000000E+00    0.00000000E+00    1.86415075E-02   -1.51494638E-01   -1.00000000E+03    4.03809085E+00    4.03809085E+00   
                  -6.68000000E+01    0.00000000E+00    0.00000000E+00    0.00000000E+00    1.87746896E-02   -1.52576974E-01   -1.00000000E+03    4.09992557E+00    4.09992557E+00   
                  -6.66000000E+01    0.00000000E+00    0.00000000E+00    0.00000000E+00    1.89071954E-02   -1.53653814E-01   -1.00000000E+03    4.16101253E+00    4.16101253E+00   
                  -6.64000000E+01    0.00000000E+00    0.00000000E+00    0.00000000E+00    1.90390222E-02   -1.54725136E-01   -1.00000000E+03    4.22136307E+00    4.22136307E+00   
                  -6.62000000E+01    0.00000000E+00    0.00000000E+00    0.00000000E+00    1.91701671E-02   -1.55790916E-01   -1.00000000E+03    4.28098824E+00    4.28098824E+00   
                  -6.60000000E+01    0.00000000E+00    0.00000000E+00    0.00000000E+00    1.93006275E-02   -1.56851133E-01   -1.00000000E+03    4.33989885E+00    4.33989885E+00   
                  -6.58000000E+01    0.00000000E+00    0.00000000E+00    0.00000000E+00    1.94304007E-02   -1.57905766E-01   -1.00000000E+03    4.39810542E+00    4.39810542E+00   
                  -6.56000000E+01    0.00000000E+00    0.00000000E+00    0.00000000E+00    1.95594842E-02   -1.58954794E-01   -1.00000000E+03    4.45561824E+00    4.45561824E+00   
                  -6.54000000E+01    0.00000000E+00    0.00000000E+00    0.00000000E+00    1.96878755E-02   -1.59998196E-01   -1.00000000E+03    4.51244737E+00    4.51244737E+00   
                  -6.52000000E+01    0.00000000E+00    0.00000000E+00    0.00000000E+00    1.98155722E-02   -1.61035954E-01   -1.00000000E+03    4.56860261E+00    4.56860261E+00   
                  -6.50000000E+01    0.00000000E+00    0.00000000E+00    0.00000000E+00    1.99425719E-02   -1.62068046E-01   -1.00000000E+03    4.62409356E+00    4.62409356E+00   
                  -6.48000000E+01    0.00000000E+00    0.00000000E+00    0.00000000E+00    2.00688722E-02   -1.63094456E-01   -1.00000000E+03    4.67892959E+00    4.67892959E+00   
                  -6.46000000E+01    0.00000000E+00    0.00000000E+00    0.00000000E+00    2.01944711E-02   -1.64115164E-01   -1.00000000E+03    4.73311986E+00    4.73311986E+00   
                  -6.44000000E+01    0.00000000E+00    0.00000000E+00    0.00000000E+00    2.03193662E-02   -1.65130154E-01   -1.00000000E+03    4.78667332E+00    4.78667332E+00   
                  -6.42000000E+01    0.00000000E+00    0.00000000E+00    0.00000000E+00    2.04435555E-02   -1.66139407E-01   -1.00000000E+03    4.83959875E+00    4.83959875E+00   
                  -6.40000000E+01    0.00000000E+00    0.00000000E+00    0.00000000E+00    2.05670369E-02   -1.67142908E-01   -1.00000000E+03    4.89190470E+00    4.89190470E+00   
                  -6.38000000E+01    0.00000000E+00    0.00000000E+00    0.00000000E+00    2.06898086E-02   -1.68140640E-01   -1.00000000E+03    4.94359956E+00    4.94359956E+00   
                  -6.36000000E+01    0.00000000E+00    0.00000000E+00    0.00000000E+00    2.08118685E-02   -1.69132588E-01   -1.00000000E+03    4.99469153E+00    4.99469153E+00   
                  -6.34000000E+01    0.00000000E+00    0.00000000E+00    0.00000000E+00    2.09332148E-02   -1.70118738E-01   -1.00000000E+03    5.04518865E+00    5.04518865E+00   
                  -6.32000000E+01    0.00000000E+00    0.00000000E+00    0.00000000E+00    2.10538458E-02   -1.71099073E-01   -1.00000000E+03    5.09509877E+00    5.09509877E+00   
                  -6.30000000E+01    0.00000000E+00    0.00000000E+00    0.00000000E+00    2.11737597E-02   -1.72073581E-01   -1.00000000E+03    5.14442959E+00    5.14442959E+00   
                  -6.28000000E+01    0.00000000E+00    0.00000000E+00    0.00000000E+00    2.12929549E-02   -1.73042249E-01   -1.00000000E+03    5.19318864E+00    5.19318864E+00   
                  -6.26000000E+01    0.00000000E+00    0.00000000E+00    0.00000000E+00    2.14114298E-02   -1.74005063E-01   -1.00000000E+03    5.24138332E+00    5.24138332E+00   
                  -6.24000000E+01    0.00000000E+00    0.00000000E+00    0.00000000E+00    2.15291829E-02   -1.74962011E-01   -1.00000000E+03    5.28902085E+00    5.28902085E+00   
                  -6.22000000E+01    0.00000000E+00    0.00000000E+00    0.00000000E+00    2.16462128E-02   -1.75913081E-01   -1.00000000E+03    5.33610832E+00    5.33610832E+00   
                  -6.20000000E+01    0.00000000E+00    0.00000000E+00    0.00000000E+00    2.17625180E-02   -1.76858262E-01   -1.00000000E+03    5.38265269E+00    5.38265269E+00   
                  -6.18000000E+01    0.00000000E+00    0.00000000E+00    0.00000000E+00    2.18780972E-02   -1.77797543E-01   -1.00000000E+03    5.42866075E+00    5.42866075E+00   
                  -6.16000000E+01    0.00000000E+00    0.00000000E+00    0.00000000E+00    2.19929492E-02   -1.78730915E-01   -1.00000000E+03    5.47413919E+00    5.47413919E+00   
                  -6.14000000E+01    0.00000000E+00    0.00000000E+00    0.00000000E+00    2.21070728E-02   -1.79658366E-01   -1.00000000E+03    5.51909456E+00    5.51909456E+00   
                  -6.12000000E+01    0.00000000E+00    0.00000000E+00    0.00000000E+00    2.22204669E-02   -1.80579889E-01   -1.00000000E+03    5.56353328E+00    5.56353328E+00   
                  -6.10000000E+01    0.00000000E+00    0.00000000E+00    0.00000000E+00    2.23331303E-02   -1.81495475E-01   -1.00000000E+03    5.60746165E+00    5.60746165E+00   
                  -6.08000000E+01    0.00000000E+00    0.00000000E+00    0.00000000E+00    2.24450621E-02   -1.82405114E-01   -1.00000000E+03    5.65088585E+00    5.65088585E+00   
                  -6.06000000E+01    0.00000000E+00    0.00000000E+00    0.00000000E+00    2.25562614E-02   -1.83308801E-01   -1.00000000E+03    5.69381195E+00    5.69381195E+00   
                  -6.04000000E+01    0.00000000E+00    0.00000000E+00    0.00000000E+00    2.26667272E-02   -1.84206527E-01   -1.00000000E+03    5.73624591E+00    5.73624591E+00   
                  -6.02000000E+01    0.00000000E+00    0.00000000E+00    0.00000000E+00    2.27764588E-02   -1.85098286E-01   -1.00000000E+03    5.77819357E+00    5.77819357E+00   
                  -6.00000000E+01    0.00000000E+00    0.00000000E+00    0.00000000E+00    2.28854554E-02   -1.85984072E-01   -1.00000000E+03    5.81966068E+00    5.81966068E+00   
                  -5.98000000E+01    0.00000000E+00    0.00000000E+00    0.00000000E+00    2.29937164E-02   -1.86863880E-01   -1.00000000E+03    5.86065286E+00    5.86065286E+00   
                  -5.96000000E+01    0.00000000E+00    0.00000000E+00    0.00000000E+00    2.31012410E-02   -1.87737704E-01   -1.00000000E+03    5.90117566E+00    5.90117566E+00   
                  -5.94000000E+01    0.00000000E+00    0.00000000E+00    0.00000000E+00    2.32080288E-02   -1.88605539E-01   -1.00000000E+03    5.94123451E+00    5.94123451E+00   
                  -5.92000000E+01    0.00000000E+00    0.00000000E+00    0.00000000E+00    2.33140793E-02   -1.89467383E-01   -1.00000000E+03    5.98083477E+00    5.98083477E+00   
                  -5.90000000E+01    0.00000000E+00    0.00000000E+00    0.00000000E+00    2.34193920E-02   -1.90323231E-01   -1.00000000E+03    6.01998168E+00    6.01998168E+00   
                  -5.88000000E+01    0.00000000E+00    0.00000000E+00    0.00000000E+00    2.35239665E-02   -1.91173080E-01   -1.00000000E+03    6.05868040E+00    6.05868040E+00   
                  -5.86000000E+01    0.00000000E+00    0.00000000E+00    0.00000000E+00    2.36278026E-02   -1.92016928E-01   -1.00000000E+03    6.09693600E+00    6.09693600E+00   
                  -5.84000000E+01    0.00000000E+00    0.00000000E+00    0.00000000E+00    2.37309000E-02   -1.92854773E-01   -1.00000000E+03    6.13475349E+00    6.13475349E+00   
                  -5.82000000E+01    0.00000000E+00    0.00000000E+00    0.00000000E+00    2.38332585E-02   -1.93686613E-01   -1.00000000E+03    6.17213775E+00    6.17213775E+00   
                  -5.80000000E+01    0.00000000E+00    0.00000000E+00    0.00000000E+00    2.39348780E-02   -1.94512448E-01   -1.00000000E+03    6.20909362E+00    6.20909362E+00   
                  -5.78000000E+01    0.00000000E+00    0.00000000E+00    0.00000000E+00    2.40357584E-02   -1.95332276E-01   -1.00000000E+03    6.24562584E+00    6.24562584E+00   