##File Type: Far field
##File Format: 5
##Source: fin_dip_11
##Date: 2018-08-01 10:36:32
** File exported by POSTFEKO version 2018-319328 (x64)

#Configuration Name: StandardConfiguration1
#Request Name: FarField1
#Frequency: 1.00000000E+09
#Coordinate System: Spherical
#No. of Theta Samples: 901
#No. of Phi Samples: 1
#Result Type: Gain
#No. of Header Lines: 1
#                 "Theta"           "Phi"             "Re(Etheta)"      "Im(Etheta)"      "Re(Ephi)"        "Im(Ephi)"        "Gain(Theta)"     "Gain(Phi)"       "Gain(Total)"     
                  -9.00000000E+01    0.00000000E+00    0.00000000E+00    0.00000000E+00    4.22730427E-16   -2.56413814E-16   -1.00000000E+03   -2.99368182E+02   -2.99368182E+02   
                  -8.98000000E+01    0.00000000E+00    0.00000000E+00    0.00000000E+00    2.85965957E-03   -6.62478603E-03   -1.00000000E+03   -3.60845696E+01   -3.60845696E+01   
                  -8.96000000E+01    0.00000000E+00    0.00000000E+00    0.00000000E+00    5.72205623E-03   -1.32476322E-02   -1.00000000E+03   -3.00643886E+01   -3.00643886E+01   
                  -8.94000000E+01    0.00000000E+00    0.00000000E+00    0.00000000E+00    8.58992521E-03   -1.98665969E-02   -1.00000000E+03   -2.65432615E+01   -2.65432615E+01   
                  -8.92000000E+01    0.00000000E+00    0.00000000E+00    0.00000000E+00    1.14659980E-02   -2.64797347E-02   -1.00000000E+03   -2.40454641E+01   -2.40454641E+01   
                  -8.90000000E+01    0.00000000E+00    0.00000000E+00    0.00000000E+00    1.43530007E-02   -3.30850948E-02   -1.00000000E+03   -2.21085205E+01   -2.21085205E+01   
                  -8.88000000E+01    0.00000000E+00    0.00000000E+00    0.00000000E+00    1.72536517E-02   -3.96807191E-02   -1.00000000E+03   -2.05264316E+01   -2.05264316E+01   
                  -8.86000000E+01    0.00000000E+00    0.00000000E+00    0.00000000E+00    2.01706602E-02   -4.62646405E-02   -1.00000000E+03   -1.91893112E+01   -1.91893112E+01   
                  -8.84000000E+01    0.00000000E+00    0.00000000E+00    0.00000000E+00    2.31067244E-02   -5.28348808E-02   -1.00000000E+03   -1.80315672E+01   -1.80315672E+01   
                  -8.82000000E+01    0.00000000E+00    0.00000000E+00    0.00000000E+00    2.60645291E-02   -5.93894492E-02   -1.00000000E+03   -1.70108911E+01   -1.70108911E+01   
                  -8.80000000E+01    0.00000000E+00    0.00000000E+00    0.00000000E+00    2.90467444E-02   -6.59263405E-02   -1.00000000E+03   -1.60983953E+01   -1.60983953E+01   
                  -8.78000000E+01    0.00000000E+00    0.00000000E+00    0.00000000E+00    3.20560235E-02   -7.24435333E-02   -1.00000000E+03   -1.52734753E+01   -1.52734753E+01   
                  -8.76000000E+01    0.00000000E+00    0.00000000E+00    0.00000000E+00    3.50950006E-02   -7.89389883E-02   -1.00000000E+03   -1.45209175E+01   -1.45209175E+01   
                  -8.74000000E+01    0.00000000E+00    0.00000000E+00    0.00000000E+00    3.81662895E-02   -8.54106464E-02   -1.00000000E+03   -1.38291688E+01   -1.38291688E+01   
                  -8.72000000E+01    0.00000000E+00    0.00000000E+00    0.00000000E+00    4.12724809E-02   -9.18564276E-02   -1.00000000E+03   -1.31892485E+01   -1.31892485E+01   
                  -8.70000000E+01    0.00000000E+00    0.00000000E+00    0.00000000E+00    4.44161412E-02   -9.82742286E-02   -1.00000000E+03   -1.25940375E+01   -1.25940375E+01   
                  -8.68000000E+01    0.00000000E+00    0.00000000E+00    0.00000000E+00    4.75998100E-02   -1.04661922E-01   -1.00000000E+03   -1.20377968E+01   -1.20377968E+01   
                  -8.66000000E+01    0.00000000E+00    0.00000000E+00    0.00000000E+00    5.08259982E-02   -1.11017353E-01   -1.00000000E+03   -1.15158322E+01   -1.15158322E+01   
                  -8.64000000E+01    0.00000000E+00    0.00000000E+00    0.00000000E+00    5.40971860E-02   -1.17338341E-01   -1.00000000E+03   -1.10242552E+01   -1.10242552E+01   
                  -8.62000000E+01    0.00000000E+00    0.00000000E+00    0.00000000E+00    5.74158208E-02   -1.23622675E-01   -1.00000000E+03   -1.05598087E+01   -1.05598087E+01   
                  -8.60000000E+01    0.00000000E+00    0.00000000E+00    0.00000000E+00    6.07843154E-02   -1.29868114E-01   -1.00000000E+03   -1.01197371E+01   -1.01197371E+01   
                  -8.58000000E+01    0.00000000E+00    0.00000000E+00    0.00000000E+00    6.42050453E-02   -1.36072383E-01   -1.00000000E+03   -9.70168835E+00   -9.70168835E+00   
                  -8.56000000E+01    0.00000000E+00    0.00000000E+00    0.00000000E+00    6.76803472E-02   -1.42233176E-01   -1.00000000E+03   -9.30363910E+00   -9.30363910E+00   
                  -8.54000000E+01    0.00000000E+00    0.00000000E+00    0.00000000E+00    7.12125165E-02   -1.48348152E-01   -1.00000000E+03   -8.92383585E+00   -8.92383585E+00   
                  -8.52000000E+01    0.00000000E+00    0.00000000E+00    0.00000000E+00    7.48038050E-02   -1.54414932E-01   -1.00000000E+03   -8.56074916E+00   -8.56074916E+00   
                  -8.50000000E+01    0.00000000E+00    0.00000000E+00    0.00000000E+00    7.84564191E-02   -1.60431100E-01   -1.00000000E+03   -8.21303702E+00   -8.21303702E+00   
                  -8.48000000E+01    0.00000000E+00    0.00000000E+00    0.00000000E+00    8.21725171E-02   -1.66394204E-01   -1.00000000E+03   -7.87951539E+00   -7.87951539E+00   
                  -8.46000000E+01    0.00000000E+00    0.00000000E+00    0.00000000E+00    8.59542074E-02   -1.72301749E-01   -1.00000000E+03   -7.55913440E+00   -7.55913440E+00   
                  -8.44000000E+01    0.00000000E+00    0.00000000E+00    0.00000000E+00    8.98035457E-02   -1.78151202E-01   -1.00000000E+03   -7.25095877E+00   -7.25095877E+00   
                  -8.42000000E+01    0.00000000E+00    0.00000000E+00    0.00000000E+00    9.37225330E-02   -1.83939987E-01   -1.00000000E+03   -6.95415176E+00   -6.95415176E+00   
                  -8.40000000E+01    0.00000000E+00    0.00000000E+00    0.00000000E+00    9.77131132E-02   -1.89665486E-01   -1.00000000E+03   -6.66796177E+00   -6.66796177E+00   
                  -8.38000000E+01    0.00000000E+00    0.00000000E+00    0.00000000E+00    1.01777170E-01   -1.95325036E-01   -1.00000000E+03   -6.39171118E+00   -6.39171118E+00   
                  -8.36000000E+01    0.00000000E+00    0.00000000E+00    0.00000000E+00    1.05916527E-01   -2.00915932E-01   -1.00000000E+03   -6.12478696E+00   -6.12478696E+00   
                  -8.34000000E+01    0.00000000E+00    0.00000000E+00    0.00000000E+00    1.10132941E-01   -2.06435423E-01   -1.00000000E+03   -5.86663272E+00   -5.86663272E+00   
                  -8.32000000E+01    0.00000000E+00    0.00000000E+00    0.00000000E+00    1.14428103E-01   -2.11880712E-01   -1.00000000E+03   -5.61674192E+00   -5.61674192E+00   
                  -8.30000000E+01    0.00000000E+00    0.00000000E+00    0.00000000E+00    1.18803635E-01   -2.17248956E-01   -1.00000000E+03   -5.37465210E+00   -5.37465210E+00   
                  -8.28000000E+01    0.00000000E+00    0.00000000E+00    0.00000000E+00    1.23261085E-01   -2.22537266E-01   -1.00000000E+03   -5.13993993E+00   -5.13993993E+00   
                  -8.26000000E+01    0.00000000E+00    0.00000000E+00    0.00000000E+00    1.27801930E-01   -2.27742705E-01   -1.00000000E+03   -4.91221691E+00   -4.91221691E+00   
                  -8.24000000E+01    0.00000000E+00    0.00000000E+00    0.00000000E+00    1.32427565E-01   -2.32862291E-01   -1.00000000E+03   -4.69112562E+00   -4.69112562E+00   
                  -8.22000000E+01    0.00000000E+00    0.00000000E+00    0.00000000E+00    1.37139310E-01   -2.37892992E-01   -1.00000000E+03   -4.47633654E+00   -4.47633654E+00   
                  -8.20000000E+01    0.00000000E+00    0.00000000E+00    0.00000000E+00    1.41938399E-01   -2.42831729E-01   -1.00000000E+03   -4.26754520E+00   -4.26754520E+00   
                  -8.18000000E+01    0.00000000E+00    0.00000000E+00    0.00000000E+00    1.46825981E-01   -2.47675375E-01   -1.00000000E+03   -4.06446970E+00   -4.06446970E+00   
                  -8.16000000E+01    0.00000000E+00    0.00000000E+00    0.00000000E+00    1.51803120E-01   -2.52420758E-01   -1.00000000E+03   -3.86684854E+00   -3.86684854E+00   
                  -8.14000000E+01    0.00000000E+00    0.00000000E+00    0.00000000E+00    1.56870786E-01   -2.57064655E-01   -1.00000000E+03   -3.67443870E+00   -3.67443870E+00   
                  -8.12000000E+01    0.00000000E+00    0.00000000E+00    0.00000000E+00    1.62029857E-01   -2.61603799E-01   -1.00000000E+03   -3.48701395E+00   -3.48701395E+00   
                  -8.10000000E+01    0.00000000E+00    0.00000000E+00    0.00000000E+00    1.67281113E-01   -2.66034875E-01   -1.00000000E+03   -3.30436330E+00   -3.30436330E+00   
                  -8.08000000E+01    0.00000000E+00    0.00000000E+00    0.00000000E+00    1.72625239E-01   -2.70354522E-01   -1.00000000E+03   -3.12628972E+00   -3.12628972E+00   
                  -8.06000000E+01    0.00000000E+00    0.00000000E+00    0.00000000E+00    1.78062812E-01   -2.74559333E-01   -1.00000000E+03   -2.95260888E+00   -2.95260888E+00   
                  -8.04000000E+01    0.00000000E+00    0.00000000E+00    0.00000000E+00    1.83594310E-01   -2.78645857E-01   -1.00000000E+03   -2.78314812E+00   -2.78314812E+00   
                  -8.02000000E+01    0.00000000E+00    0.00000000E+00    0.00000000E+00    1.89220098E-01   -2.82610599E-01   -1.00000000E+03   -2.61774545E+00   -2.61774545E+00   
                  -8.00000000E+01    0.00000000E+00    0.00000000E+00    0.00000000E+00    1.94940435E-01   -2.86450022E-01   -1.00000000E+03   -2.45624874E+00   -2.45624874E+00   
                  -7.98000000E+01    0.00000000E+00    0.00000000E+00    0.00000000E+00    2.00755464E-01   -2.90160545E-01   -1.00000000E+03   -2.29851488E+00   -2.29851488E+00   
                  -7.96000000E+01    0.00000000E+00    0.00000000E+00    0.00000000E+00    2.06665212E-01   -2.93738548E-01   -1.00000000E+03   -2.14440911E+00   -2.14440911E+00   
                  -7.94000000E+01    0.00000000E+00    0.00000000E+00    0.00000000E+00    2.12669585E-01   -2.97180373E-01   -1.00000000E+03   -1.99380438E+00   -1.99380438E+00   
                  -7.92000000E+01    0.00000000E+00    0.00000000E+00    0.00000000E+00    2.18768370E-01   -3.00482322E-01   -1.00000000E+03   -1.84658075E+00   -1.84658075E+00   
                  -7.90000000E+01    0.00000000E+00    0.00000000E+00    0.00000000E+00    2.24961226E-01   -3.03640663E-01   -1.00000000E+03   -1.70262491E+00   -1.70262491E+00   
                  -7.88000000E+01    0.00000000E+00    0.00000000E+00    0.00000000E+00    2.31247686E-01   -3.06651629E-01   -1.00000000E+03   -1.56182966E+00   -1.56182966E+00   
                  -7.86000000E+01    0.00000000E+00    0.00000000E+00    0.00000000E+00    2.37627150E-01   -3.09511420E-01   -1.00000000E+03   -1.42409349E+00   -1.42409349E+00   
                  -7.84000000E+01    0.00000000E+00    0.00000000E+00    0.00000000E+00    2.44098884E-01   -3.12216208E-01   -1.00000000E+03   -1.28932019E+00   -1.28932019E+00   
                  -7.82000000E+01    0.00000000E+00    0.00000000E+00    0.00000000E+00    2.50662019E-01   -3.14762134E-01   -1.00000000E+03   -1.15741847E+00   -1.15741847E+00   
                  -7.80000000E+01    0.00000000E+00    0.00000000E+00    0.00000000E+00    2.57315545E-01   -3.17145317E-01   -1.00000000E+03   -1.02830164E+00   -1.02830164E+00   
                  -7.78000000E+01    0.00000000E+00    0.00000000E+00    0.00000000E+00    2.64058308E-01   -3.19361851E-01   -1.00000000E+03   -9.01887313E-01   -9.01887313E-01   
                  -7.76000000E+01    0.00000000E+00    0.00000000E+00    0.00000000E+00    2.70889013E-01   -3.21407809E-01   -1.00000000E+03   -7.78097088E-01   -7.78097088E-01   
                  -7.74000000E+01    0.00000000E+00    0.00000000E+00    0.00000000E+00    2.77806211E-01   -3.23279248E-01   -1.00000000E+03   -6.56856329E-01   -6.56856329E-01   
                  -7.72000000E+01    0.00000000E+00    0.00000000E+00    0.00000000E+00    2.84808306E-01   -3.24972211E-01   -1.00000000E+03   -5.38093910E-01   -5.38093910E-01   
                  -7.70000000E+01    0.00000000E+00    0.00000000E+00    0.00000000E+00    2.91893548E-01   -3.26482727E-01   -1.00000000E+03   -4.21741996E-01   -4.21741996E-01   
                  -7.68000000E+01    0.00000000E+00    0.00000000E+00    0.00000000E+00    2.99060028E-01   -3.27806819E-01   -1.00000000E+03   -3.07735840E-01   -3.07735840E-01   
                  -7.66000000E+01    0.00000000E+00    0.00000000E+00    0.00000000E+00    3.06305680E-01   -3.28940506E-01   -1.00000000E+03   -1.96013598E-01   -1.96013598E-01   
                  -7.64000000E+01    0.00000000E+00    0.00000000E+00    0.00000000E+00    3.13628276E-01   -3.29879805E-01   -1.00000000E+03   -8.65161478E-02   -8.65161478E-02   
                  -7.62000000E+01    0.00000000E+00    0.00000000E+00    0.00000000E+00    3.21025425E-01   -3.30620735E-01   -1.00000000E+03    2.08130638E-02    2.08130638E-02   
                  -7.60000000E+01    0.00000000E+00    0.00000000E+00    0.00000000E+00    3.28494567E-01   -3.31159325E-01   -1.00000000E+03    1.26028178E-01    1.26028178E-01   
                  -7.58000000E+01    0.00000000E+00    0.00000000E+00    0.00000000E+00    3.36032974E-01   -3.31491612E-01   -1.00000000E+03    2.29181062E-01    2.29181062E-01   
                  -7.56000000E+01    0.00000000E+00    0.00000000E+00    0.00000000E+00    3.43637749E-01   -3.31613649E-01   -1.00000000E+03    3.30321436E-01    3.30321436E-01   
                  -7.54000000E+01    0.00000000E+00    0.00000000E+00    0.00000000E+00    3.51305818E-01   -3.31521512E-01   -1.00000000E+03    4.29497001E-01    4.29497001E-01   
                  -7.52000000E+01    0.00000000E+00    0.00000000E+00    0.00000000E+00    3.59033933E-01   -3.31211297E-01   -1.00000000E+03    5.26753544E-01    5.26753544E-01   
                  -7.50000000E+01    0.00000000E+00    0.00000000E+00    0.00000000E+00    3.66818670E-01   -3.30679132E-01   -1.00000000E+03    6.22135050E-01    6.22135050E-01   
                  -7.48000000E+01    0.00000000E+00    0.00000000E+00    0.00000000E+00    3.74656423E-01   -3.29921180E-01   -1.00000000E+03    7.15683797E-01    7.15683797E-01   
                  -7.46000000E+01    0.00000000E+00    0.00000000E+00    0.00000000E+00    3.82543406E-01   -3.28933641E-01   -1.00000000E+03    8.07440450E-01    8.07440450E-01   
                  -7.44000000E+01    0.00000000E+00    0.00000000E+00    0.00000000E+00    3.90475649E-01   -3.27712763E-01   -1.00000000E+03    8.97444149E-01    8.97444149E-01   
                  -7.42000000E+01    0.00000000E+00    0.00000000E+00    0.00000000E+00    3.98449001E-01   -3.26254843E-01   -1.00000000E+03    9.85732586E-01    9.85732586E-01   
                  -7.40000000E+01    0.00000000E+00    0.00000000E+00    0.00000000E+00    4.06459120E-01   -3.24556233E-01   -1.00000000E+03    1.07234209E+00    1.07234209E+00   
                  -7.38000000E+01    0.00000000E+00    0.00000000E+00    0.00000000E+00    4.14501480E-01   -3.22613350E-01   -1.00000000E+03    1.15730767E+00    1.15730767E+00   
                  -7.36000000E+01    0.00000000E+00    0.00000000E+00    0.00000000E+00    4.22571367E-01   -3.20422677E-01   -1.00000000E+03    1.24066315E+00    1.24066315E+00   
                  -7.34000000E+01    0.00000000E+00    0.00000000E+00    0.00000000E+00    4.30663877E-01   -3.17980771E-01   -1.00000000E+03    1.32244114E+00    1.32244114E+00   
                  -7.32000000E+01    0.00000000E+00    0.00000000E+00    0.00000000E+00    4.38773916E-01   -3.15284271E-01   -1.00000000E+03    1.40267318E+00    1.40267318E+00   
                  -7.30000000E+01    0.00000000E+00    0.00000000E+00    0.00000000E+00    4.46896199E-01   -3.12329903E-01   -1.00000000E+03    1.48138973E+00    1.48138973E+00   
                  -7.28000000E+01    0.00000000E+00    0.00000000E+00    0.00000000E+00    4.55025251E-01   -3.09114486E-01   -1.00000000E+03    1.55862027E+00    1.55862027E+00   
                  -7.26000000E+01    0.00000000E+00    0.00000000E+00    0.00000000E+00    4.63155407E-01   -3.05634941E-01   -1.00000000E+03    1.63439333E+00    1.63439333E+00   
                  -7.24000000E+01    0.00000000E+00    0.00000000E+00    0.00000000E+00    4.71280807E-01   -3.01888296E-01   -1.00000000E+03    1.70873655E+00    1.70873655E+00   
                  -7.22000000E+01    0.00000000E+00    0.00000000E+00    0.00000000E+00    4.79395405E-01   -2.97871693E-01   -1.00000000E+03    1.78167670E+00    1.78167670E+00   
                  -7.20000000E+01    0.00000000E+00    0.00000000E+00    0.00000000E+00    4.87492960E-01   -2.93582399E-01   -1.00000000E+03    1.85323975E+00    1.85323975E+00   
                  -7.18000000E+01    0.00000000E+00    0.00000000E+00    0.00000000E+00    4.95567045E-01   -2.89017807E-01   -1.00000000E+03    1.92345089E+00    1.92345089E+00   
                  -7.16000000E+01    0.00000000E+00    0.00000000E+00    0.00000000E+00    5.03611042E-01   -2.84175450E-01   -1.00000000E+03    1.99233460E+00    1.99233460E+00   
                  -7.14000000E+01    0.00000000E+00    0.00000000E+00    0.00000000E+00    5.11618145E-01   -2.79053004E-01   -1.00000000E+03    2.05991465E+00    2.05991465E+00   
                  -7.12000000E+01    0.00000000E+00    0.00000000E+00    0.00000000E+00    5.19581363E-01   -2.73648299E-01   -1.00000000E+03    2.12621413E+00    2.12621413E+00   
                  -7.10000000E+01    0.00000000E+00    0.00000000E+00    0.00000000E+00    5.27493521E-01   -2.67959325E-01   -1.00000000E+03    2.19125554E+00    2.19125554E+00   
                  -7.08000000E+01    0.00000000E+00    0.00000000E+00    0.00000000E+00    5.35347259E-01   -2.61984241E-01   -1.00000000E+03    2.25506076E+00    2.25506076E+00   
                  -7.06000000E+01    0.00000000E+00    0.00000000E+00    0.00000000E+00    5.43135039E-01   -2.55721383E-01   -1.00000000E+03    2.31765111E+00    2.31765111E+00   
                  -7.04000000E+01    0.00000000E+00    0.00000000E+00    0.00000000E+00    5.50849143E-01   -2.49169271E-01   -1.00000000E+03    2.37904738E+00    2.37904738E+00   
                  -7.02000000E+01    0.00000000E+00    0.00000000E+00    0.00000000E+00    5.58481682E-01   -2.42326620E-01   -1.00000000E+03    2.43926984E+00    2.43926984E+00   
                  -7.00000000E+01    0.00000000E+00    0.00000000E+00    0.00000000E+00    5.66024591E-01   -2.35192345E-01   -1.00000000E+03    2.49833828E+00    2.49833828E+00   
                  -6.98000000E+01    0.00000000E+00    0.00000000E+00    0.00000000E+00    5.73469640E-01   -2.27765573E-01   -1.00000000E+03    2.55627204E+00    2.55627204E+00   
                  -6.96000000E+01    0.00000000E+00    0.00000000E+00    0.00000000E+00    5.80808433E-01   -2.20045649E-01   -1.00000000E+03    2.61309000E+00    2.61309000E+00   
                  -6.94000000E+01    0.00000000E+00    0.00000000E+00    0.00000000E+00    5.88032416E-01   -2.12032146E-01   -1.00000000E+03    2.66881067E+00    2.66881067E+00   
                  -6.92000000E+01    0.00000000E+00    0.00000000E+00    0.00000000E+00    5.95132878E-01   -2.03724872E-01   -1.00000000E+03    2.72345213E+00    2.72345213E+00   
                  -6.90000000E+01    0.00000000E+00    0.00000000E+00    0.00000000E+00    6.02100957E-01   -1.95123880E-01   -1.00000000E+03    2.77703212E+00    2.77703212E+00   
                  -6.88000000E+01    0.00000000E+00    0.00000000E+00    0.00000000E+00    6.08927649E-01   -1.86229478E-01   -1.00000000E+03    2.82956802E+00    2.82956802E+00   
                  -6.86000000E+01    0.00000000E+00    0.00000000E+00    0.00000000E+00    6.15603807E-01   -1.77042234E-01   -1.00000000E+03    2.88107687E+00    2.88107687E+00   
                  -6.84000000E+01    0.00000000E+00    0.00000000E+00    0.00000000E+00    6.22120153E-01   -1.67562987E-01   -1.00000000E+03    2.93157543E+00    2.93157543E+00   
                  -6.82000000E+01    0.00000000E+00    0.00000000E+00    0.00000000E+00    6.28467282E-01   -1.57792856E-01   -1.00000000E+03    2.98108014E+00    2.98108014E+00   
                  -6.80000000E+01    0.00000000E+00    0.00000000E+00    0.00000000E+00    6.34635668E-01   -1.47733248E-01   -1.00000000E+03    3.02960718E+00    3.02960718E+00   
                  -6.78000000E+01    0.00000000E+00    0.00000000E+00    0.00000000E+00    6.40615674E-01   -1.37385865E-01   -1.00000000E+03    3.07717247E+00    3.07717247E+00   
                  -6.76000000E+01    0.00000000E+00    0.00000000E+00    0.00000000E+00    6.46397557E-01   -1.26752714E-01   -1.00000000E+03    3.12379168E+00    3.12379168E+00   
                  -6.74000000E+01    0.00000000E+00    0.00000000E+00    0.00000000E+00    6.51971479E-01   -1.15836117E-01   -1.00000000E+03    3.16948027E+00    3.16948027E+00   
                  -6.72000000E+01    0.00000000E+00    0.00000000E+00    0.00000000E+00    6.57327511E-01   -1.04638716E-01   -1.00000000E+03    3.21425348E+00    3.21425348E+00   
                  -6.70000000E+01    0.00000000E+00    0.00000000E+00    0.00000000E+00    6.62455648E-01   -9.31634805E-02   -1.00000000E+03    3.25812634E+00    3.25812634E+00   
                  -6.68000000E+01    0.00000000E+00    0.00000000E+00    0.00000000E+00    6.67345815E-01   -8.14137210E-02   -1.00000000E+03    3.30111371E+00    3.30111371E+00   
                  -6.66000000E+01    0.00000000E+00    0.00000000E+00    0.00000000E+00    6.71987876E-01   -6.93930907E-02   -1.00000000E+03    3.34323029E+00    3.34323029E+00   
                  -6.64000000E+01    0.00000000E+00    0.00000000E+00    0.00000000E+00    6.76371646E-01   -5.71055964E-02   -1.00000000E+03    3.38449060E+00    3.38449060E+00   
                  -6.62000000E+01    0.00000000E+00    0.00000000E+00    0.00000000E+00    6.80486904E-01   -4.45556048E-02   -1.00000000E+03    3.42490903E+00    3.42490903E+00   
                  -6.60000000E+01    0.00000000E+00    0.00000000E+00    0.00000000E+00    6.84323399E-01   -3.17478498E-02   -1.00000000E+03    3.46449983E+00    3.46449983E+00   
                  -6.58000000E+01    0.00000000E+00    0.00000000E+00    0.00000000E+00    6.87870866E-01   -1.86874397E-02   -1.00000000E+03    3.50327713E+00    3.50327713E+00   
                  -6.56000000E+01    0.00000000E+00    0.00000000E+00    0.00000000E+00    6.91119037E-01   -5.37986322E-03   -1.00000000E+03    3.54125497E+00    3.54125497E+00   
                  -6.54000000E+01    0.00000000E+00    0.00000000E+00    0.00000000E+00    6.94057654E-01    8.16900340E-03   -1.00000000E+03    3.57844725E+00    3.57844725E+00   
                  -6.52000000E+01    0.00000000E+00    0.00000000E+00    0.00000000E+00    6.96676481E-01    2.19528910E-02   -1.00000000E+03    3.61486781E+00    3.61486781E+00   
                  -6.50000000E+01    0.00000000E+00    0.00000000E+00    0.00000000E+00    6.98965317E-01    3.59651316E-02   -1.00000000E+03    3.65053040E+00    3.65053040E+00   
                  -6.48000000E+01    0.00000000E+00    0.00000000E+00    0.00000000E+00    7.00914014E-01    5.01986532E-02   -1.00000000E+03    3.68544871E+00    3.68544871E+00   
                  -6.46000000E+01    0.00000000E+00    0.00000000E+00    0.00000000E+00    7.02512485E-01    6.46459746E-02   -1.00000000E+03    3.71963635E+00    3.71963635E+00   
                  -6.44000000E+01    0.00000000E+00    0.00000000E+00    0.00000000E+00    7.03750726E-01    7.92992013E-02   -1.00000000E+03    3.75310689E+00    3.75310689E+00   
                  -6.42000000E+01    0.00000000E+00    0.00000000E+00    0.00000000E+00    7.04618826E-01    9.41500213E-02   -1.00000000E+03    3.78587387E+00    3.78587387E+00   
                  -6.40000000E+01    0.00000000E+00    0.00000000E+00    0.00000000E+00    7.05106986E-01    1.09189702E-01   -1.00000000E+03    3.81795075E+00    3.81795075E+00   
                  -6.38000000E+01    0.00000000E+00    0.00000000E+00    0.00000000E+00    7.05205531E-01    1.24409085E-01   -1.00000000E+03    3.84935101E+00    3.84935101E+00   
                  -6.36000000E+01    0.00000000E+00    0.00000000E+00    0.00000000E+00    7.04904931E-01    1.39798587E-01   -1.00000000E+03    3.88008807E+00    3.88008807E+00   
                  -6.34000000E+01    0.00000000E+00    0.00000000E+00    0.00000000E+00    7.04195818E-01    1.55348196E-01   -1.00000000E+03    3.91017535E+00    3.91017535E+00   
                  -6.32000000E+01    0.00000000E+00    0.00000000E+00    0.00000000E+00    7.03068999E-01    1.71047468E-01   -1.00000000E+03    3.93962627E+00    3.93962627E+00   
                  -6.30000000E+01    0.00000000E+00    0.00000000E+00    0.00000000E+00    7.01515476E-01    1.86885531E-01   -1.00000000E+03    3.96845422E+00    3.96845422E+00   
                  -6.28000000E+01    0.00000000E+00    0.00000000E+00    0.00000000E+00    6.99526466E-01    2.02851080E-01   -1.00000000E+03    3.99667262E+00    3.99667262E+00   
                  -6.26000000E+01    0.00000000E+00    0.00000000E+00    0.00000000E+00    6.97093416E-01    2.18932378E-01   -1.00000000E+03    4.02429488E+00    4.02429488E+00   
                  -6.24000000E+01    0.00000000E+00    0.00000000E+00    0.00000000E+00    6.94208025E-01    2.35117263E-01   -1.00000000E+03    4.05133442E+00    4.05133442E+00   
                  -6.22000000E+01    0.00000000E+00    0.00000000E+00    0.00000000E+00    6.90862260E-01    2.51393141E-01   -1.00000000E+03    4.07780469E+00    4.07780469E+00   
                  -6.20000000E+01    0.00000000E+00    0.00000000E+00    0.00000000E+00    6.87048377E-01    2.67746995E-01   -1.00000000E+03    4.10371913E+00    4.10371913E+00   
                  -6.18000000E+01    0.00000000E+00    0.00000000E+00    0.00000000E+00    6.82758938E-01    2.84165387E-01   -1.00000000E+03    4.12909122E+00    4.12909122E+00   
                  -6.16000000E+01    0.00000000E+00    0.00000000E+00    0.00000000E+00    6.77986835E-01    3.00634459E-01   -1.00000000E+03    4.15393448E+00    4.15393448E+00   
                  -6.14000000E+01    0.00000000E+00    0.00000000E+00    0.00000000E+00    6.72725306E-01    3.17139943E-01   -1.00000000E+03    4.17826242E+00    4.17826242E+00   
                  -6.12000000E+01    0.00000000E+00    0.00000000E+00    0.00000000E+00    6.66967957E-01    3.33667164E-01   -1.00000000E+03    4.20208861E+00    4.20208861E+00   
                  -6.10000000E+01    0.00000000E+00    0.00000000E+00    0.00000000E+00    6.60708780E-01    3.50201046E-01   -1.00000000E+03    4.22542664E+00    4.22542664E+00   
                  -6.08000000E+01    0.00000000E+00    0.00000000E+00    0.00000000E+00    6.53942177E-01    3.66726120E-01   -1.00000000E+03    4.24829010E+00    4.24829010E+00   
                  -6.06000000E+01    0.00000000E+00    0.00000000E+00    0.00000000E+00    6.46662976E-01    3.83226535E-01   -1.00000000E+03    4.27069266E+00    4.27069266E+00   
                  -6.04000000E+01    0.00000000E+00    0.00000000E+00    0.00000000E+00    6.38866454E-01    3.99686063E-01   -1.00000000E+03    4.29264799E+00    4.29264799E+00   
                  -6.02000000E+01    0.00000000E+00    0.00000000E+00    0.00000000E+00    6.30548357E-01    4.16088112E-01   -1.00000000E+03    4.31416978E+00    4.31416978E+00   
                  -6.00000000E+01    0.00000000E+00    0.00000000E+00    0.00000000E+00    6.21704920E-01    4.32415737E-01   -1.00000000E+03    4.33527177E+00    4.33527177E+00   
                  -5.98000000E+01    0.00000000E+00    0.00000000E+00    0.00000000E+00    6.12332885E-01    4.48651654E-01   -1.00000000E+03    4.35596771E+00    4.35596771E+00   
                  -5.96000000E+01    0.00000000E+00    0.00000000E+00    0.00000000E+00    6.02429524E-01    4.64778246E-01   -1.00000000E+03    4.37627138E+00    4.37627138E+00   
                  -5.94000000E+01    0.00000000E+00    0.00000000E+00    0.00000000E+00    5.91992660E-01    4.80777588E-01   -1.00000000E+03    4.39619658E+00    4.39619658E+00   
                  -5.92000000E+01    0.00000000E+00    0.00000000E+00    0.00000000E+00    5.81020680E-01    4.96631453E-01   -1.00000000E+03    4.41575711E+00    4.41575711E+00   
                  -5.90000000E+01    0.00000000E+00    0.00000000E+00    0.00000000E+00    5.69512563E-01    5.12321332E-01   -1.00000000E+03    4.43496679E+00    4.43496679E+00   
                  -5.88000000E+01    0.00000000E+00    0.00000000E+00    0.00000000E+00    5.57467892E-01    5.27828452E-01   -1.00000000E+03    4.45383945E+00    4.45383945E+00   
                  -5.86000000E+01    0.00000000E+00    0.00000000E+00    0.00000000E+00    5.44886876E-01    5.43133793E-01   -1.00000000E+03    4.47238892E+00    4.47238892E+00   
                  -5.84000000E+01    0.00000000E+00    0.00000000E+00    0.00000000E+00    5.31770367E-01    5.58218107E-01   -1.00000000E+03    4.49062902E+00    4.49062902E+00   
                  -5.82000000E+01    0.00000000E+00    0.00000000E+00    0.00000000E+00    5.18119880E-01    5.73061939E-01   -1.00000000E+03    4.50857354E+00    4.50857354E+00   
                  -5.80000000E+01    0.00000000E+00    0.00000000E+00    0.00000000E+00    5.03937606E-01    5.87645648E-01   -1.00000000E+03    4.52623629E+00    4.52623629E+00   
                  -5.78000000E+01    0.00000000E+00    0.00000000E+00    0.00000000E+00    4.89226433E-01    6.01949430E-01   -1.00000000E+03    4.54363101E+00    4.54363101E+00   