##File Type: Far field
##File Format: 5
##Source: inf_dip_img
##Date: 2018-08-01 10:25:29
** File exported by POSTFEKO version 2018-319328 (x64)

#Configuration Name: StandardConfiguration1
#Request Name: FarField1
#Frequency: 1.00000000E+09
#Coordinate System: Spherical
#No. of Theta Samples: 901
#No. of Phi Samples: 1
#Result Type: Gain
#No. of Header Lines: 1
#                 "Theta"           "Phi"             "Re(Etheta)"      "Im(Etheta)"      "Re(Ephi)"        "Im(Ephi)"        "Gain(Theta)"     "Gain(Phi)"       "Gain(Total)"     
                  -9.00000000E+01    0.00000000E+00    0.00000000E+00    0.00000000E+00   -6.77195368E-08    1.39086786E-08   -1.00000000E+03   -1.27399622E+02   -1.27399622E+02   
                  -8.98000000E+01    0.00000000E+00    0.00000000E+00    0.00000000E+00    4.00719683E-04   -1.24714423E-03   -1.00000000E+03   -4.18483099E+01   -4.18483099E+01   
                  -8.96000000E+01    0.00000000E+00    0.00000000E+00    0.00000000E+00    8.01494509E-04   -2.49426317E-03   -1.00000000E+03   -3.58277340E+01   -3.58277340E+01   
                  -8.94000000E+01    0.00000000E+00    0.00000000E+00    0.00000000E+00    1.20224415E-03   -3.74130366E-03   -1.00000000E+03   -3.23060988E+01   -3.23060988E+01   
                  -8.92000000E+01    0.00000000E+00    0.00000000E+00    0.00000000E+00    1.60295601E-03   -4.98822651E-03   -1.00000000E+03   -2.98076240E+01   -2.98076240E+01   
                  -8.90000000E+01    0.00000000E+00    0.00000000E+00    0.00000000E+00    2.00361748E-03   -6.23499251E-03   -1.00000000E+03   -2.78698221E+01   -2.78698221E+01   
                  -8.88000000E+01    0.00000000E+00    0.00000000E+00    0.00000000E+00    2.40421598E-03   -7.48156247E-03   -1.00000000E+03   -2.62866904E+01   -2.62866904E+01   
                  -8.86000000E+01    0.00000000E+00    0.00000000E+00    0.00000000E+00    2.80473890E-03   -8.72789721E-03   -1.00000000E+03   -2.49483410E+01   -2.49483410E+01   
                  -8.84000000E+01    0.00000000E+00    0.00000000E+00    0.00000000E+00    3.20517368E-03   -9.97395758E-03   -1.00000000E+03   -2.37891808E+01   -2.37891808E+01   
                  -8.82000000E+01    0.00000000E+00    0.00000000E+00    0.00000000E+00    3.60550774E-03   -1.12197045E-02   -1.00000000E+03   -2.27669010E+01   -2.27669010E+01   
                  -8.80000000E+01    0.00000000E+00    0.00000000E+00    0.00000000E+00    4.00572851E-03   -1.24650988E-02   -1.00000000E+03   -2.18526135E+01   -2.18526135E+01   
                  -8.78000000E+01    0.00000000E+00    0.00000000E+00    0.00000000E+00    4.40582343E-03   -1.37101014E-02   -1.00000000E+03   -2.10257134E+01   -2.10257134E+01   
                  -8.76000000E+01    0.00000000E+00    0.00000000E+00    0.00000000E+00    4.80577997E-03   -1.49546734E-02   -1.00000000E+03   -2.02709871E+01   -2.02709871E+01   
                  -8.74000000E+01    0.00000000E+00    0.00000000E+00    0.00000000E+00    5.20558560E-03   -1.61987757E-02   -1.00000000E+03   -1.95768811E+01   -1.95768811E+01   
                  -8.72000000E+01    0.00000000E+00    0.00000000E+00    0.00000000E+00    5.60522779E-03   -1.74423693E-02   -1.00000000E+03   -1.89344146E+01   -1.89344146E+01   
                  -8.70000000E+01    0.00000000E+00    0.00000000E+00    0.00000000E+00    6.00469405E-03   -1.86854155E-02   -1.00000000E+03   -1.83364684E+01   -1.83364684E+01   
                  -8.68000000E+01    0.00000000E+00    0.00000000E+00    0.00000000E+00    6.40397189E-03   -1.99278753E-02   -1.00000000E+03   -1.77773031E+01   -1.77773031E+01   
                  -8.66000000E+01    0.00000000E+00    0.00000000E+00    0.00000000E+00    6.80304884E-03   -2.11697099E-02   -1.00000000E+03   -1.72522244E+01   -1.72522244E+01   
                  -8.64000000E+01    0.00000000E+00    0.00000000E+00    0.00000000E+00    7.20191245E-03   -2.24108806E-02   -1.00000000E+03   -1.67573436E+01   -1.67573436E+01   
                  -8.62000000E+01    0.00000000E+00    0.00000000E+00    0.00000000E+00    7.60055030E-03   -2.36513487E-02   -1.00000000E+03   -1.62894035E+01   -1.62894035E+01   
                  -8.60000000E+01    0.00000000E+00    0.00000000E+00    0.00000000E+00    7.99894996E-03   -2.48910756E-02   -1.00000000E+03   -1.58456481E+01   -1.58456481E+01   
                  -8.58000000E+01    0.00000000E+00    0.00000000E+00    0.00000000E+00    8.39709905E-03   -2.61300227E-02   -1.00000000E+03   -1.54237253E+01   -1.54237253E+01   
                  -8.56000000E+01    0.00000000E+00    0.00000000E+00    0.00000000E+00    8.79498521E-03   -2.73681516E-02   -1.00000000E+03   -1.50216114E+01   -1.50216114E+01   
                  -8.54000000E+01    0.00000000E+00    0.00000000E+00    0.00000000E+00    9.19259609E-03   -2.86054239E-02   -1.00000000E+03   -1.46375527E+01   -1.46375527E+01   
                  -8.52000000E+01    0.00000000E+00    0.00000000E+00    0.00000000E+00    9.58991938E-03   -2.98418012E-02   -1.00000000E+03   -1.42700195E+01   -1.42700195E+01   
                  -8.50000000E+01    0.00000000E+00    0.00000000E+00    0.00000000E+00    9.98694277E-03   -3.10772453E-02   -1.00000000E+03   -1.39176697E+01   -1.39176697E+01   
                  -8.48000000E+01    0.00000000E+00    0.00000000E+00    0.00000000E+00    1.03836540E-02   -3.23117180E-02   -1.00000000E+03   -1.35793188E+01   -1.35793188E+01   
                  -8.46000000E+01    0.00000000E+00    0.00000000E+00    0.00000000E+00    1.07800409E-02   -3.35451812E-02   -1.00000000E+03   -1.32539167E+01   -1.32539167E+01   
                  -8.44000000E+01    0.00000000E+00    0.00000000E+00    0.00000000E+00    1.11760912E-02   -3.47775970E-02   -1.00000000E+03   -1.29405279E+01   -1.29405279E+01   
                  -8.42000000E+01    0.00000000E+00    0.00000000E+00    0.00000000E+00    1.15717927E-02   -3.60089276E-02   -1.00000000E+03   -1.26383154E+01   -1.26383154E+01   
                  -8.40000000E+01    0.00000000E+00    0.00000000E+00    0.00000000E+00    1.19671332E-02   -3.72391350E-02   -1.00000000E+03   -1.23465273E+01   -1.23465273E+01   
                  -8.38000000E+01    0.00000000E+00    0.00000000E+00    0.00000000E+00    1.23621008E-02   -3.84681816E-02   -1.00000000E+03   -1.20644857E+01   -1.20644857E+01   
                  -8.36000000E+01    0.00000000E+00    0.00000000E+00    0.00000000E+00    1.27566833E-02   -3.96960298E-02   -1.00000000E+03   -1.17915773E+01   -1.17915773E+01   
                  -8.34000000E+01    0.00000000E+00    0.00000000E+00    0.00000000E+00    1.31508686E-02   -4.09226422E-02   -1.00000000E+03   -1.15272453E+01   -1.15272453E+01   
                  -8.32000000E+01    0.00000000E+00    0.00000000E+00    0.00000000E+00    1.35446448E-02   -4.21479813E-02   -1.00000000E+03   -1.12709829E+01   -1.12709829E+01   
                  -8.30000000E+01    0.00000000E+00    0.00000000E+00    0.00000000E+00    1.39379998E-02   -4.33720101E-02   -1.00000000E+03   -1.10223274E+01   -1.10223274E+01   
                  -8.28000000E+01    0.00000000E+00    0.00000000E+00    0.00000000E+00    1.43309218E-02   -4.45946912E-02   -1.00000000E+03   -1.07808550E+01   -1.07808550E+01   
                  -8.26000000E+01    0.00000000E+00    0.00000000E+00    0.00000000E+00    1.47233988E-02   -4.58159877E-02   -1.00000000E+03   -1.05461771E+01   -1.05461771E+01   
                  -8.24000000E+01    0.00000000E+00    0.00000000E+00    0.00000000E+00    1.51154190E-02   -4.70358628E-02   -1.00000000E+03   -1.03179357E+01   -1.03179357E+01   
                  -8.22000000E+01    0.00000000E+00    0.00000000E+00    0.00000000E+00    1.55069706E-02   -4.82542796E-02   -1.00000000E+03   -1.00958012E+01   -1.00958012E+01   
                  -8.20000000E+01    0.00000000E+00    0.00000000E+00    0.00000000E+00    1.58980419E-02   -4.94712015E-02   -1.00000000E+03   -9.87946867E+00   -9.87946867E+00   
                  -8.18000000E+01    0.00000000E+00    0.00000000E+00    0.00000000E+00    1.62886210E-02   -5.06865921E-02   -1.00000000E+03   -9.66865590E+00   -9.66865590E+00   
                  -8.16000000E+01    0.00000000E+00    0.00000000E+00    0.00000000E+00    1.66786963E-02   -5.19004150E-02   -1.00000000E+03   -9.46310105E+00   -9.46310105E+00   
                  -8.14000000E+01    0.00000000E+00    0.00000000E+00    0.00000000E+00    1.70682562E-02   -5.31126340E-02   -1.00000000E+03   -9.26256079E+00   -9.26256079E+00   
                  -8.12000000E+01    0.00000000E+00    0.00000000E+00    0.00000000E+00    1.74572890E-02   -5.43232130E-02   -1.00000000E+03   -9.06680854E+00   -9.06680854E+00   
                  -8.10000000E+01    0.00000000E+00    0.00000000E+00    0.00000000E+00    1.78457833E-02   -5.55321161E-02   -1.00000000E+03   -8.87563298E+00   -8.87563298E+00   
                  -8.08000000E+01    0.00000000E+00    0.00000000E+00    0.00000000E+00    1.82337275E-02   -5.67393075E-02   -1.00000000E+03   -8.68883675E+00   -8.68883675E+00   
                  -8.06000000E+01    0.00000000E+00    0.00000000E+00    0.00000000E+00    1.86211102E-02   -5.79447516E-02   -1.00000000E+03   -8.50623519E+00   -8.50623519E+00   
                  -8.04000000E+01    0.00000000E+00    0.00000000E+00    0.00000000E+00    1.90079200E-02   -5.91484129E-02   -1.00000000E+03   -8.32765531E+00   -8.32765531E+00   
                  -8.02000000E+01    0.00000000E+00    0.00000000E+00    0.00000000E+00    1.93941456E-02   -6.03502562E-02   -1.00000000E+03   -8.15293481E+00   -8.15293481E+00   
                  -8.00000000E+01    0.00000000E+00    0.00000000E+00    0.00000000E+00    1.97797755E-02   -6.15502463E-02   -1.00000000E+03   -7.98192121E+00   -7.98192121E+00   
                  -7.98000000E+01    0.00000000E+00    0.00000000E+00    0.00000000E+00    2.01647987E-02   -6.27483482E-02   -1.00000000E+03   -7.81447110E+00   -7.81447110E+00   
                  -7.96000000E+01    0.00000000E+00    0.00000000E+00    0.00000000E+00    2.05492039E-02   -6.39445271E-02   -1.00000000E+03   -7.65044940E+00   -7.65044940E+00   
                  -7.94000000E+01    0.00000000E+00    0.00000000E+00    0.00000000E+00    2.09329801E-02   -6.51387484E-02   -1.00000000E+03   -7.48972876E+00   -7.48972876E+00   
                  -7.92000000E+01    0.00000000E+00    0.00000000E+00    0.00000000E+00    2.13161160E-02   -6.63309776E-02   -1.00000000E+03   -7.33218894E+00   -7.33218894E+00   
                  -7.90000000E+01    0.00000000E+00    0.00000000E+00    0.00000000E+00    2.16986007E-02   -6.75211804E-02   -1.00000000E+03   -7.17771634E+00   -7.17771634E+00   
                  -7.88000000E+01    0.00000000E+00    0.00000000E+00    0.00000000E+00    2.20804232E-02   -6.87093227E-02   -1.00000000E+03   -7.02620346E+00   -7.02620346E+00   
                  -7.86000000E+01    0.00000000E+00    0.00000000E+00    0.00000000E+00    2.24615727E-02   -6.98953707E-02   -1.00000000E+03   -6.87754852E+00   -6.87754852E+00   
                  -7.84000000E+01    0.00000000E+00    0.00000000E+00    0.00000000E+00    2.28420383E-02   -7.10792904E-02   -1.00000000E+03   -6.73165506E+00   -6.73165506E+00   
                  -7.82000000E+01    0.00000000E+00    0.00000000E+00    0.00000000E+00    2.32218092E-02   -7.22610485E-02   -1.00000000E+03   -6.58843151E+00   -6.58843151E+00   
                  -7.80000000E+01    0.00000000E+00    0.00000000E+00    0.00000000E+00    2.36008746E-02   -7.34406115E-02   -1.00000000E+03   -6.44779097E+00   -6.44779097E+00   
                  -7.78000000E+01    0.00000000E+00    0.00000000E+00    0.00000000E+00    2.39792240E-02   -7.46179462E-02   -1.00000000E+03   -6.30965079E+00   -6.30965079E+00   
                  -7.76000000E+01    0.00000000E+00    0.00000000E+00    0.00000000E+00    2.43568467E-02   -7.57930198E-02   -1.00000000E+03   -6.17393236E+00   -6.17393236E+00   
                  -7.74000000E+01    0.00000000E+00    0.00000000E+00    0.00000000E+00    2.47337322E-02   -7.69657993E-02   -1.00000000E+03   -6.04056086E+00   -6.04056086E+00   
                  -7.72000000E+01    0.00000000E+00    0.00000000E+00    0.00000000E+00    2.51098700E-02   -7.81362523E-02   -1.00000000E+03   -5.90946497E+00   -5.90946497E+00   
                  -7.70000000E+01    0.00000000E+00    0.00000000E+00    0.00000000E+00    2.54852498E-02   -7.93043464E-02   -1.00000000E+03   -5.78057667E+00   -5.78057667E+00   
                  -7.68000000E+01    0.00000000E+00    0.00000000E+00    0.00000000E+00    2.58598611E-02   -8.04700494E-02   -1.00000000E+03   -5.65383109E+00   -5.65383109E+00   
                  -7.66000000E+01    0.00000000E+00    0.00000000E+00    0.00000000E+00    2.62336938E-02   -8.16333294E-02   -1.00000000E+03   -5.52916623E+00   -5.52916623E+00   
                  -7.64000000E+01    0.00000000E+00    0.00000000E+00    0.00000000E+00    2.66067375E-02   -8.27941546E-02   -1.00000000E+03   -5.40652287E+00   -5.40652287E+00   
                  -7.62000000E+01    0.00000000E+00    0.00000000E+00    0.00000000E+00    2.69789823E-02   -8.39524935E-02   -1.00000000E+03   -5.28584437E+00   -5.28584437E+00   
                  -7.60000000E+01    0.00000000E+00    0.00000000E+00    0.00000000E+00    2.73504180E-02   -8.51083148E-02   -1.00000000E+03   -5.16707652E+00   -5.16707652E+00   
                  -7.58000000E+01    0.00000000E+00    0.00000000E+00    0.00000000E+00    2.77210346E-02   -8.62615873E-02   -1.00000000E+03   -5.05016741E+00   -5.05016741E+00   
                  -7.56000000E+01    0.00000000E+00    0.00000000E+00    0.00000000E+00    2.80908223E-02   -8.74122804E-02   -1.00000000E+03   -4.93506730E+00   -4.93506730E+00   
                  -7.54000000E+01    0.00000000E+00    0.00000000E+00    0.00000000E+00    2.84597711E-02   -8.85603631E-02   -1.00000000E+03   -4.82172850E+00   -4.82172850E+00   
                  -7.52000000E+01    0.00000000E+00    0.00000000E+00    0.00000000E+00    2.88278712E-02   -8.97058053E-02   -1.00000000E+03   -4.71010527E+00   -4.71010527E+00   
                  -7.50000000E+01    0.00000000E+00    0.00000000E+00    0.00000000E+00    2.91951131E-02   -9.08485766E-02   -1.00000000E+03   -4.60015369E+00   -4.60015369E+00   
                  -7.48000000E+01    0.00000000E+00    0.00000000E+00    0.00000000E+00    2.95614870E-02   -9.19886471E-02   -1.00000000E+03   -4.49183158E+00   -4.49183158E+00   
                  -7.46000000E+01    0.00000000E+00    0.00000000E+00    0.00000000E+00    2.99269835E-02   -9.31259871E-02   -1.00000000E+03   -4.38509842E+00   -4.38509842E+00   
                  -7.44000000E+01    0.00000000E+00    0.00000000E+00    0.00000000E+00    3.02915929E-02   -9.42605671E-02   -1.00000000E+03   -4.27991522E+00   -4.27991522E+00   
                  -7.42000000E+01    0.00000000E+00    0.00000000E+00    0.00000000E+00    3.06553060E-02   -9.53923578E-02   -1.00000000E+03   -4.17624450E+00   -4.17624450E+00   
                  -7.40000000E+01    0.00000000E+00    0.00000000E+00    0.00000000E+00    3.10181133E-02   -9.65213302E-02   -1.00000000E+03   -4.07405018E+00   -4.07405018E+00   
                  -7.38000000E+01    0.00000000E+00    0.00000000E+00    0.00000000E+00    3.13800058E-02   -9.76474555E-02   -1.00000000E+03   -3.97329751E+00   -3.97329751E+00   
                  -7.36000000E+01    0.00000000E+00    0.00000000E+00    0.00000000E+00    3.17409741E-02   -9.87707053E-02   -1.00000000E+03   -3.87395302E+00   -3.87395302E+00   
                  -7.34000000E+01    0.00000000E+00    0.00000000E+00    0.00000000E+00    3.21010091E-02   -9.98910512E-02   -1.00000000E+03   -3.77598444E+00   -3.77598444E+00   
                  -7.32000000E+01    0.00000000E+00    0.00000000E+00    0.00000000E+00    3.24601020E-02   -1.01008465E-01   -1.00000000E+03   -3.67936066E+00   -3.67936066E+00   
                  -7.30000000E+01    0.00000000E+00    0.00000000E+00    0.00000000E+00    3.28182437E-02   -1.02122919E-01   -1.00000000E+03   -3.58405166E+00   -3.58405166E+00   
                  -7.28000000E+01    0.00000000E+00    0.00000000E+00    0.00000000E+00    3.31754254E-02   -1.03234386E-01   -1.00000000E+03   -3.49002846E+00   -3.49002846E+00   
                  -7.26000000E+01    0.00000000E+00    0.00000000E+00    0.00000000E+00    3.35316384E-02   -1.04342839E-01   -1.00000000E+03   -3.39726310E+00   -3.39726310E+00   
                  -7.24000000E+01    0.00000000E+00    0.00000000E+00    0.00000000E+00    3.38868738E-02   -1.05448250E-01   -1.00000000E+03   -3.30572854E+00   -3.30572854E+00   
                  -7.22000000E+01    0.00000000E+00    0.00000000E+00    0.00000000E+00    3.42411233E-02   -1.06550592E-01   -1.00000000E+03   -3.21539868E+00   -3.21539868E+00   
                  -7.20000000E+01    0.00000000E+00    0.00000000E+00    0.00000000E+00    3.45943781E-02   -1.07649840E-01   -1.00000000E+03   -3.12624826E+00   -3.12624826E+00   
                  -7.18000000E+01    0.00000000E+00    0.00000000E+00    0.00000000E+00    3.49466299E-02   -1.08745967E-01   -1.00000000E+03   -3.03825287E+00   -3.03825287E+00   
                  -7.16000000E+01    0.00000000E+00    0.00000000E+00    0.00000000E+00    3.52978704E-02   -1.09838946E-01   -1.00000000E+03   -2.95138888E+00   -2.95138888E+00   
                  -7.14000000E+01    0.00000000E+00    0.00000000E+00    0.00000000E+00    3.56480912E-02   -1.10928753E-01   -1.00000000E+03   -2.86563341E+00   -2.86563341E+00   
                  -7.12000000E+01    0.00000000E+00    0.00000000E+00    0.00000000E+00    3.59972842E-02   -1.12015361E-01   -1.00000000E+03   -2.78096433E+00   -2.78096433E+00   
                  -7.10000000E+01    0.00000000E+00    0.00000000E+00    0.00000000E+00    3.63454412E-02   -1.13098746E-01   -1.00000000E+03   -2.69736020E+00   -2.69736020E+00   
                  -7.08000000E+01    0.00000000E+00    0.00000000E+00    0.00000000E+00    3.66925544E-02   -1.14178883E-01   -1.00000000E+03   -2.61480022E+00   -2.61480022E+00   
                  -7.06000000E+01    0.00000000E+00    0.00000000E+00    0.00000000E+00    3.70386157E-02   -1.15255746E-01   -1.00000000E+03   -2.53326425E+00   -2.53326425E+00   
                  -7.04000000E+01    0.00000000E+00    0.00000000E+00    0.00000000E+00    3.73836173E-02   -1.16329312E-01   -1.00000000E+03   -2.45273278E+00   -2.45273278E+00   
                  -7.02000000E+01    0.00000000E+00    0.00000000E+00    0.00000000E+00    3.77275515E-02   -1.17399557E-01   -1.00000000E+03   -2.37318684E+00   -2.37318684E+00   
                  -7.00000000E+01    0.00000000E+00    0.00000000E+00    0.00000000E+00    3.80704106E-02   -1.18466456E-01   -1.00000000E+03   -2.29460806E+00   -2.29460806E+00   
                  -6.98000000E+01    0.00000000E+00    0.00000000E+00    0.00000000E+00    3.84121870E-02   -1.19529986E-01   -1.00000000E+03   -2.21697860E+00   -2.21697860E+00   
                  -6.96000000E+01    0.00000000E+00    0.00000000E+00    0.00000000E+00    3.87528733E-02   -1.20590124E-01   -1.00000000E+03   -2.14028114E+00   -2.14028114E+00   
                  -6.94000000E+01    0.00000000E+00    0.00000000E+00    0.00000000E+00    3.90924620E-02   -1.21646847E-01   -1.00000000E+03   -2.06449885E+00   -2.06449885E+00   
                  -6.92000000E+01    0.00000000E+00    0.00000000E+00    0.00000000E+00    3.94309459E-02   -1.22700132E-01   -1.00000000E+03   -1.98961541E+00   -1.98961541E+00   
                  -6.90000000E+01    0.00000000E+00    0.00000000E+00    0.00000000E+00    3.97683177E-02   -1.23749956E-01   -1.00000000E+03   -1.91561491E+00   -1.91561491E+00   
                  -6.88000000E+01    0.00000000E+00    0.00000000E+00    0.00000000E+00    4.01045704E-02   -1.24796298E-01   -1.00000000E+03   -1.84248194E+00   -1.84248194E+00   
                  -6.86000000E+01    0.00000000E+00    0.00000000E+00    0.00000000E+00    4.04396969E-02   -1.25839135E-01   -1.00000000E+03   -1.77020147E+00   -1.77020147E+00   
                  -6.84000000E+01    0.00000000E+00    0.00000000E+00    0.00000000E+00    4.07736902E-02   -1.26878447E-01   -1.00000000E+03   -1.69875891E+00   -1.69875891E+00   
                  -6.82000000E+01    0.00000000E+00    0.00000000E+00    0.00000000E+00    4.11065435E-02   -1.27914211E-01   -1.00000000E+03   -1.62814007E+00   -1.62814007E+00   
                  -6.80000000E+01    0.00000000E+00    0.00000000E+00    0.00000000E+00    4.14382501E-02   -1.28946407E-01   -1.00000000E+03   -1.55833110E+00   -1.55833110E+00   
                  -6.78000000E+01    0.00000000E+00    0.00000000E+00    0.00000000E+00    4.17688033E-02   -1.29975013E-01   -1.00000000E+03   -1.48931858E+00   -1.48931858E+00   
                  -6.76000000E+01    0.00000000E+00    0.00000000E+00    0.00000000E+00    4.20981966E-02   -1.31000011E-01   -1.00000000E+03   -1.42108938E+00   -1.42108938E+00   
                  -6.74000000E+01    0.00000000E+00    0.00000000E+00    0.00000000E+00    4.24264233E-02   -1.32021378E-01   -1.00000000E+03   -1.35363076E+00   -1.35363076E+00   
                  -6.72000000E+01    0.00000000E+00    0.00000000E+00    0.00000000E+00    4.27534773E-02   -1.33039096E-01   -1.00000000E+03   -1.28693029E+00   -1.28693029E+00   
                  -6.70000000E+01    0.00000000E+00    0.00000000E+00    0.00000000E+00    4.30793521E-02   -1.34053145E-01   -1.00000000E+03   -1.22097586E+00   -1.22097586E+00   
                  -6.68000000E+01    0.00000000E+00    0.00000000E+00    0.00000000E+00    4.34040416E-02   -1.35063506E-01   -1.00000000E+03   -1.15575566E+00   -1.15575566E+00   
                  -6.66000000E+01    0.00000000E+00    0.00000000E+00    0.00000000E+00    4.37275397E-02   -1.36070159E-01   -1.00000000E+03   -1.09125819E+00   -1.09125819E+00   
                  -6.64000000E+01    0.00000000E+00    0.00000000E+00    0.00000000E+00    4.40498404E-02   -1.37073086E-01   -1.00000000E+03   -1.02747222E+00   -1.02747222E+00   
                  -6.62000000E+01    0.00000000E+00    0.00000000E+00    0.00000000E+00    4.43709377E-02   -1.38072269E-01   -1.00000000E+03   -9.64386818E-01   -9.64386818E-01   
                  -6.60000000E+01    0.00000000E+00    0.00000000E+00    0.00000000E+00    4.46908259E-02   -1.39067689E-01   -1.00000000E+03   -9.01991296E-01   -9.01991296E-01   
                  -6.58000000E+01    0.00000000E+00    0.00000000E+00    0.00000000E+00    4.50094993E-02   -1.40059328E-01   -1.00000000E+03   -8.40275239E-01   -8.40275239E-01   
                  -6.56000000E+01    0.00000000E+00    0.00000000E+00    0.00000000E+00    4.53269521E-02   -1.41047170E-01   -1.00000000E+03   -7.79228476E-01   -7.79228476E-01   
                  -6.54000000E+01    0.00000000E+00    0.00000000E+00    0.00000000E+00    4.56431789E-02   -1.42031197E-01   -1.00000000E+03   -7.18841080E-01   -7.18841080E-01   
                  -6.52000000E+01    0.00000000E+00    0.00000000E+00    0.00000000E+00    4.59581743E-02   -1.43011392E-01   -1.00000000E+03   -6.59103356E-01   -6.59103356E-01   
                  -6.50000000E+01    0.00000000E+00    0.00000000E+00    0.00000000E+00    4.62719328E-02   -1.43987739E-01   -1.00000000E+03   -6.00005836E-01   -6.00005836E-01   
                  -6.48000000E+01    0.00000000E+00    0.00000000E+00    0.00000000E+00    4.65844494E-02   -1.44960220E-01   -1.00000000E+03   -5.41539269E-01   -5.41539269E-01   
                  -6.46000000E+01    0.00000000E+00    0.00000000E+00    0.00000000E+00    4.68957187E-02   -1.45928821E-01   -1.00000000E+03   -4.83694618E-01   -4.83694618E-01   
                  -6.44000000E+01    0.00000000E+00    0.00000000E+00    0.00000000E+00    4.72057358E-02   -1.46893524E-01   -1.00000000E+03   -4.26463050E-01   -4.26463050E-01   
                  -6.42000000E+01    0.00000000E+00    0.00000000E+00    0.00000000E+00    4.75144957E-02   -1.47854316E-01   -1.00000000E+03   -3.69835932E-01   -3.69835932E-01   
                  -6.40000000E+01    0.00000000E+00    0.00000000E+00    0.00000000E+00    4.78219935E-02   -1.48811181E-01   -1.00000000E+03   -3.13804821E-01   -3.13804821E-01   
                  -6.38000000E+01    0.00000000E+00    0.00000000E+00    0.00000000E+00    4.81282246E-02   -1.49764104E-01   -1.00000000E+03   -2.58361462E-01   -2.58361462E-01   
                  -6.36000000E+01    0.00000000E+00    0.00000000E+00    0.00000000E+00    4.84331842E-02   -1.50713070E-01   -1.00000000E+03   -2.03497782E-01   -2.03497782E-01   
                  -6.34000000E+01    0.00000000E+00    0.00000000E+00    0.00000000E+00    4.87368677E-02   -1.51658065E-01   -1.00000000E+03   -1.49205881E-01   -1.49205881E-01   
                  -6.32000000E+01    0.00000000E+00    0.00000000E+00    0.00000000E+00    4.90392707E-02   -1.52599076E-01   -1.00000000E+03   -9.54780313E-02   -9.54780313E-02   
                  -6.30000000E+01    0.00000000E+00    0.00000000E+00    0.00000000E+00    4.93403888E-02   -1.53536089E-01   -1.00000000E+03   -4.23066685E-02   -4.23066685E-02   
                  -6.28000000E+01    0.00000000E+00    0.00000000E+00    0.00000000E+00    4.96402177E-02   -1.54469090E-01   -1.00000000E+03    1.03156108E-02    1.03156108E-02   
                  -6.26000000E+01    0.00000000E+00    0.00000000E+00    0.00000000E+00    4.99387533E-02   -1.55398066E-01   -1.00000000E+03    6.23960550E-02    6.23960550E-02   
                  -6.24000000E+01    0.00000000E+00    0.00000000E+00    0.00000000E+00    5.02359915E-02   -1.56323005E-01   -1.00000000E+03    1.13941762E-01    1.13941762E-01   
                  -6.22000000E+01    0.00000000E+00    0.00000000E+00    0.00000000E+00    5.05319282E-02   -1.57243895E-01   -1.00000000E+03    1.64959682E-01    1.64959682E-01   
                  -6.20000000E+01    0.00000000E+00    0.00000000E+00    0.00000000E+00    5.08265597E-02   -1.58160722E-01   -1.00000000E+03    2.15456626E-01    2.15456626E-01   
                  -6.18000000E+01    0.00000000E+00    0.00000000E+00    0.00000000E+00    5.11198820E-02   -1.59073476E-01   -1.00000000E+03    2.65439263E-01    2.65439263E-01   
                  -6.16000000E+01    0.00000000E+00    0.00000000E+00    0.00000000E+00    5.14118915E-02   -1.59982145E-01   -1.00000000E+03    3.14914131E-01    3.14914131E-01   
                  -6.14000000E+01    0.00000000E+00    0.00000000E+00    0.00000000E+00    5.17025846E-02   -1.60886717E-01   -1.00000000E+03    3.63887637E-01    3.63887637E-01   
                  -6.12000000E+01    0.00000000E+00    0.00000000E+00    0.00000000E+00    5.19919578E-02   -1.61787183E-01   -1.00000000E+03    4.12366060E-01    4.12366060E-01   
                  -6.10000000E+01    0.00000000E+00    0.00000000E+00    0.00000000E+00    5.22800077E-02   -1.62683530E-01   -1.00000000E+03    4.60355556E-01    4.60355556E-01   
                  -6.08000000E+01    0.00000000E+00    0.00000000E+00    0.00000000E+00    5.25667309E-02   -1.63575749E-01   -1.00000000E+03    5.07862164E-01    5.07862164E-01   
                  -6.06000000E+01    0.00000000E+00    0.00000000E+00    0.00000000E+00    5.28521243E-02   -1.64463830E-01   -1.00000000E+03    5.54891804E-01    5.54891804E-01   
                  -6.04000000E+01    0.00000000E+00    0.00000000E+00    0.00000000E+00    5.31361847E-02   -1.65347764E-01   -1.00000000E+03    6.01450284E-01    6.01450284E-01   
                  -6.02000000E+01    0.00000000E+00    0.00000000E+00    0.00000000E+00    5.34189091E-02   -1.66227539E-01   -1.00000000E+03    6.47543300E-01    6.47543300E-01   
                  -6.00000000E+01    0.00000000E+00    0.00000000E+00    0.00000000E+00    5.37002947E-02   -1.67103149E-01   -1.00000000E+03    6.93176443E-01    6.93176443E-01   
                  -5.98000000E+01    0.00000000E+00    0.00000000E+00    0.00000000E+00    5.39803384E-02   -1.67974583E-01   -1.00000000E+03    7.38355199E-01    7.38355199E-01   
                  -5.96000000E+01    0.00000000E+00    0.00000000E+00    0.00000000E+00    5.42590377E-02   -1.68841834E-01   -1.00000000E+03    7.83084953E-01    7.83084953E-01   
                  -5.94000000E+01    0.00000000E+00    0.00000000E+00    0.00000000E+00    5.45363898E-02   -1.69704892E-01   -1.00000000E+03    8.27370989E-01    8.27370989E-01   
                  -5.92000000E+01    0.00000000E+00    0.00000000E+00    0.00000000E+00    5.48123923E-02   -1.70563751E-01   -1.00000000E+03    8.71218498E-01    8.71218498E-01   
                  -5.90000000E+01    0.00000000E+00    0.00000000E+00    0.00000000E+00    5.50870426E-02   -1.71418402E-01   -1.00000000E+03    9.14632576E-01    9.14632576E-01   
                  -5.88000000E+01    0.00000000E+00    0.00000000E+00    0.00000000E+00    5.53603385E-02   -1.72268838E-01   -1.00000000E+03    9.57618226E-01    9.57618226E-01   
                  -5.86000000E+01    0.00000000E+00    0.00000000E+00    0.00000000E+00    5.56322776E-02   -1.73115053E-01   -1.00000000E+03    1.00018036E+00    1.00018036E+00   
                  -5.84000000E+01    0.00000000E+00    0.00000000E+00    0.00000000E+00    5.59028578E-02   -1.73957039E-01   -1.00000000E+03    1.04232382E+00    1.04232382E+00   
                  -5.82000000E+01    0.00000000E+00    0.00000000E+00    0.00000000E+00    5.61720770E-02   -1.74794789E-01   -1.00000000E+03    1.08405334E+00    1.08405334E+00   
                  -5.80000000E+01    0.00000000E+00    0.00000000E+00    0.00000000E+00    5.64399332E-02   -1.75628299E-01   -1.00000000E+03    1.12537358E+00    1.12537358E+00   
                  -5.78000000E+01    0.00000000E+00    0.00000000E+00    0.00000000E+00    5.67064246E-02   -1.76457561E-01   -1.00000000E+03    1.16628913E+00    1.16628913E+00   